                  Welcome to Q-Chem
     A Quantum Leap Into The Future Of Chemistry


 Q-Chem 6.2 (devel), Q-Chem, Inc., Pleasanton, CA (2024)

 E. Epifanovsky,  A. T. B. Gilbert,  Xintian Feng,  Joonho Lee,  Yuezhi Mao,  
 N. Mardirossian,  P. Pokhilko,  A. White,  M. Wormit,  M. P. Coons,  
 A. L. Dempwolff,  Zhengting Gan,  D. Hait,  P. R. Horn,  L. D. Jacobson,  
 I. Kaliman,  J. Kussmann,  A. W. Lange,  Ka Un Lao,  D. S. Levine,  Jie Liu,  
 S. C. McKenzie,  A. F. Morrison,  K. D. Nanda,  F. Plasser,  D. R. Rehn,  
 M. L. Vidal,  Zhi-Qiang You,  Ying Zhu,  Huseyin Aksu,  B. Alam,  
 B. Albrecht,  A. Aldossary,  E. Alguire,  J. H. Andersen,  
 J. E. Arias-Martinez,  V. Athavale,  D. Barton,  K. Begam,  A. Behn,  
 N. Bellonzi,  Y. A. Bernard,  E. J. Berquist,  H. Burton,  A. Carreras,  
 K. Carter-Fenk,  Mathew Chow,  Romit Chakraborty,  Chandrima Chakravarty,  
 Junhan Chen,  A. D. Chien,  K. D. Closser,  V. Cofer-Shabica,  L. Cunha,  
 S. Dasgupta,  Jia Deng,  Joseph Dickinson,  M. de Wergifosse,  
 M. Diedenhofen,  Hainam Do,  Wenjie Dou,  S. Ehlert,  Po-Tung Fang,  
 S. Fatehi,  Qingguo Feng,  Jonathan Fetherolf,  T. Friedhoff,  
 Thomas Froitzheim,  Sarai Folkestad,  B. Ganoe,  J. Gayvert,  Qinghui Ge,  
 G. Gidofalvi,  M. Gimferrer,  M. Goldey,  Montgomery Gray,  J. Gomes,  
 C. Gonzalez-Espinoza,  S. Gulania,  A. Gunina,  J. A. Gyamfi,  
 M. W. D. Hanson-Heine,  P. H. P. Harbach,  A. W. Hauser,  M. F. Herbst,  
 M. Hernandez Vera,  M. Hodecker,  Z. C. Holden,  S. Houck,  Xunkun Huang,  
 Kerwin Hui,  B. C. Huynh,  K. Ikeda,  M. Ivanov,  Nayanthara K. Jayadev,  
 Hyunjun Ji,  Zuxin Jin,  Hanjie Jiang,  Subrata Jana,  B. Kaduk,  
 S. Kaehler,  R. Kang,  K. Khistyaev,  Jaehoon Kim,  Yongbin Kim,  
 P. Klunzinger,  Z. Koczor-Benda,  Joong Hoon Koh,  D. Kosenkov,  
 Saikiran Kotaru,  L. Koulias,  T. Kowalczyk,  C. M. Krauter,  K. Kue,  
 A. Kunitsa,  T. Kus,  A. Landau,  K. V. Lawler,  D. Lefrancois,  S. Lehtola,  
 Rain Li,  Shaozhi Li,  Tao E. Li,  Yi-Pei Li,  Jiashu Liang,  M. Liebenthal,  
 Hung-Hsuan Lin,  You-Sheng Lin,  Fenglai Liu,  Kuan-Yu Liu,  Xiao Liu,  
 M. Loipersberger,  A. Luenser,  C. Malbon,  Aniket Mandal,  Manisha,  
 A. Manjanath,  P. Manohar,  E. Mansoor,  S. F. Manzer,  Shan-Ping Mao,  
 A. V. Marenich,  T. Markovich,  S. Mason,  F. Matz,  S. A. Maurer,  
 Samuel May,  Alexandra McIsaac,  P. F. McLaughlin,  M. F. S. J. Menger,  
 J.-M. Mewes,  S. A. Mewes,  P. Morgante,  Mohammad Mostafanejad,  
 Madhubani Mukherjee,  J. W. Mullinax,  Quyen Nguyen,  Avik Kumar Ojha,  
 K. J. Oosterbaan,  Eno Paenurk,  Xiaoliang Pan,  G. Paran,  V. Parravicini,  
 Alexander C. Paul,  Suranjan K. Paul,  F. Pavosevic,  Zheng Pei,  S. Prager,  
 E. I. Proynov,  E. Ramos,  B. Rana,  A. E. Rask,  A. Rettig,  R. M. Richard,  
 F. Rob,  E. Rossomme,  T. Scheele,  M. Scheurer,  M. Schneider,  
 P. E. Schneider,  Tim K. Schramm,  N. Sergueev,  S. M. Sharada,  
 Hengyuan Shen,  W. Skomorowski,  D. W. Small,  C. J. Stein,  
 Alistair J. Sterling,  Yingli Su,  Yu-Chuan Su,  E. J. Sundstrom,  
 J. Talbot,  Zhen Tao,  J. Thirman,  Hung-Yi Tsai,  T. Tsuchimochi,  
 N. M. Tubman,  C. Utku,  S. P. Veccham,  O. Vydrov,  Rahel Weiss,  
 J. Wenzel,  Jonathan Wong,  J. Witte,  H. Wu,  Yanze Wu,  A. Yamada,  
 Chou-Hsun Yang,  Kun Yao,  S. Yeganeh,  S. R. Yost,  Qi Yu,  A. Zech,  
 F. Zeller,  Chongxiao Zhao,  Igor Ying Zhang,  Xing Zhang,  Yu Zhang,  
 D. Zuev,  A. Aspuru-Guzik,  A. T. Bell,  N. A. Besley,  K. B. Bravaya,  
 B. R. Brooks,  D. Casanova,  Jeng-Da Chai,  Hsing-Ta Chen,  S. Coriani,  
 C. J. Cramer,  A. E. DePrince, III,  R. A. DiStasio Jr.,  A. Dreuw,  
 B. D. Dunietz,  T. R. Furlani,  W. A. Goddard III,  S. Grimme,  
 S. Hammes-Schiffer,  T. Head-Gordon,  W. J. Hehre,  Chao-Ping Hsu,  
 T.-C. Jagau,  Yousung Jung,  A. Klamt,  Jing Kong,  D. S. Lambrecht,  
 Xiangyuan Li,  WanZhen Liang,  N. J. Mayhall,  C. W. McCurdy,  J. B. Neaton,  
 T. Neudecker,  C. Ochsenfeld,  J. A. Parkhill,  R. Peverati,  
 V. A. Rassolov,  Haisheng Ren,  Yihan Shao,  L. V. Slipchenko,  
 R. P. Steele,  J. E. Subotnik,  A. J. W. Thom,  A. Tkatchenko,  
 D. G. Truhlar,  T. Van Voorhis,  Fan Wang,  T. A. Wesolowski,  K. B. Whaley,  
 H. L. Woodcock III,  P. M. Zimmerman,  S. Faraji,  P. M. W. Gill,  
 M. Head-Gordon,  J. M. Herbert,  A. I. Krylov

 Contributors to earlier versions of Q-Chem not listed above: 
 R. D. Adamson,  B. Austin,  R. Baer,  J. Baker,  G. J. O. Beran,  
 K. Brandhorst,  S. T. Brown,  E. F. C. Byrd,  Arup K. Chakraborty,  
 G. K. L. Chan,  Chun-Min Chang,  Yunqing Chen,  C.-L. Cheng,  
 Siu Hung Chien,  D. M. Chipman,  D. L. Crittenden,  H. Dachsel,  
 R. J. Doerksen,  A. D. Dutoi,  R. G. Edgar,  J. Fosso-Tande,  
 L. Fusti-Molnar,  D. Ghosh,  A. Ghysels,  A. Golubeva-Zadorozhnaya,  
 J. Gonthier,  M. S. Gordon,  S. R. Gwaltney,  G. Hawkins,  J. E. Herr,  
 A. Heyden,  S. Hirata,  E. G. Hohenstein,  G. Kedziora,  F. J. Keil,  
 C. Kelley,  Jihan Kim,  R. A. King,  R. Z. Khaliullin,  P. P. Korambath,  
 W. Kurlancheek,  A. Laurent,  A. M. Lee,  M. S. Lee,  S. V. Levchenko,  
 Ching Yeh Lin,  D. Liotard,  E. Livshits,  R. C. Lochan,  I. Lotan,  
 L. A. Martinez-Martinez,  P. E. Maslen,  N. Nair,  D. P. O'Neill,  
 D. Neuhauser,  E. Neuscamman,  C. M. Oana,  R. Olivares-Amaya,  R. Olson,  
 T. M. Perrine,  B. Peters,  P. A. Pieniazek,  A. Prociuk,  Y. M. Rhee,  
 J. Ritchie,  M. A. Rohrdanz,  E. Rosta,  N. J. Russ,  H. F. Schaefer III,  
 M. W. Schmidt,  N. E. Schultz,  S. Sharma,  N. Shenvi,  C. D. Sherrill,  
 A. C. Simmonett,  A. Sodt,  T. Stein,  D. Stuck,  K. S. Thanthiriwatte,  
 V. Vanovschi,  L. Vogt,  Tao Wang,  A. Warshel,  M. A. Watson,  
 C. F. Williams,  Q. Wu,  X. Xu,  Jun Yang,  W. Zhang,  Yan Zhao

   Please cite Q-Chem as follows:
  "Software for the frontiers of quantum chemistry:
   An overview of developments in the Q-Chem 5 package"
   J. Chem. Phys. 155, 084801 (2021)
   https://doi.org/10.1063/5.0055522 (open access)

 Q-Chem 6.2.0 for Intel X86 EM64T Linux

 Parts of Q-Chem use Armadillo 9.900.5 (Nocturnal Misbehaviour).
 http://arma.sourceforge.net/

 Q-Chem begins on Wed May 29 23:34:34 2024  

 Host: 
0

     Scratch files written to /data/scratch/Me3SiH_K_eda2_op1_wB97X-V_tzvppd20240529231227//
 Processing $rem in /home/ymao/my_qchem/qchem_ymao_quick_fix/config/preferences:
 Processing $rem in /home/ymao/.qchemrc:

 Q-Chem warning in module libgen/rem_setup.C, line 3380:

 Neither GIA nor STOLL is specified by user. Use STOLL as the default


 Checking the input file for inconsistencies... 	...done.

--------------------------------------------------------------
User input:
--------------------------------------------------------------
$molecule
1 1
--
0 1
C    1.78663    0.00000    2.04933   
Si   -0.00001   -0.00004   1.51826   
C    -0.89319   -1.54730   2.04960   
C    -0.89328   1.54715    2.04967   
H    -0.00019   -0.00001   0.00505   
H    2.31537    -0.88302   1.69382   
H    2.31534    0.88302    1.69378   
H    1.84726    0.00003    3.13750   
H    -1.92240   1.56358    1.69425   
H    -0.39297   2.44661    1.69422   
H    -0.92348   1.59948    3.13785   
H    -1.92237   -1.56369   1.69433   
H    -0.39293   -2.44671   1.69396   
H    -0.92323   -1.59978   3.13778   
--
1 1
K    -0.00006   0.00005    -2.59410  
$end

$rem
JOBTYPE  EDA
EDA2  1
METHOD  WB97X-V
BASIS  DEF2-TZVPPD
SYMMETRY  FALSE
SYM_IGNORE  TRUE
MEM_TOTAL  8000
MEM_STATIC  2000
BASIS_LIN_DEP_THRESH  6
THRESH  14
SCF_CONVERGENCE  8
GEN_SCFMAN  TRUE
MAXSCF  200
FD_MAT_VEC_PROD  FALSE
XC_GRID  000099000590
NL_GRID  1
SCF_GUESS  FRAGMO
FRZ_ORTHO_DECOMP  -1
EDA_CLS_DISP  TRUE
EDA_POL_A  TRUE
EDA_VCT_A  TRUE
$end
--------------------------------------------------------------
 ----------------------------------------------------------------
             Standard Nuclear Orientation (Angstroms)
    I     Atom           X                Y                Z
 ----------------------------------------------------------------
    1      C       1.7866300000     0.0000000000     2.0493300000
    2      Si     -0.0000100000    -0.0000400000     1.5182600000
    3      C      -0.8931900000    -1.5473000000     2.0496000000
    4      C      -0.8932800000     1.5471500000     2.0496700000
    5      H      -0.0001900000    -0.0000100000     0.0050500000
    6      H       2.3153700000    -0.8830200000     1.6938200000
    7      H       2.3153400000     0.8830200000     1.6937800000
    8      H       1.8472600000     0.0000300000     3.1375000000
    9      H      -1.9224000000     1.5635800000     1.6942500000
   10      H      -0.3929700000     2.4466100000     1.6942200000
   11      H      -0.9234800000     1.5994800000     3.1378500000
   12      H      -1.9223700000    -1.5636900000     1.6943300000
   13      H      -0.3929300000    -2.4467100000     1.6939600000
   14      H      -0.9232300000    -1.5997800000     3.1377800000
   15      K      -0.0000600000     0.0000500000    -2.5941000000
 ----------------------------------------------------------------
 Nuclear Repulsion Energy =         267.35197254 hartrees
 There are       30 alpha and       30 beta electrons
 Requested basis set is def2-TZVPPD
 There are 139 shells and 365 basis functions

 Total QAlloc Memory Limit   8000 MB
 Mega-Array Size      1956 MB
 MEM_STATIC part      2000 MB


                       Distance Matrix (Angstroms)
             C (  1)   Si(  2)   C (  3)   C (  4)   H (  5)   H (  6)
   Si(  2)  1.863899
   C (  3)  3.094442  1.863895
   C (  4)  3.094445  1.863900  3.094450
   H (  5)  2.715107  1.513210  2.715095  2.715103
   H (  6)  1.088888  2.484242  3.295862  4.040766  2.998911
   H (  7)  1.088887  2.484240  4.040758  3.295902  2.998871  1.766040
   H (  8)  1.089858  2.456490  3.329838  3.329792  3.636663  1.755880
   H (  9)  4.040763  2.484243  3.295925  1.088890  2.998850  4.893316
   H ( 10)  3.295855  2.484246  4.040771  1.088891  2.998920  4.292032
   H ( 11)  3.329851  2.456488  3.329779  1.089856  3.636656  4.328762
   H ( 12)  4.040771  2.484244  1.088897  3.295849  2.998923  4.292057
   H ( 13)  3.295931  2.484240  1.088889  4.040767  2.998834  3.127302
   H ( 14)  3.329769  2.456491  1.089859  3.329872  3.636656  3.617637
   K ( 15)  4.975309  4.112360  4.975532  4.975536  2.599150  4.952503
             H (  7)   H (  8)   H (  9)   H ( 10)   H ( 11)   H ( 12)
   H (  8)  1.755875
   H (  9)  4.292039  4.328741
   H ( 10)  3.127260  3.617657  1.766040
   H ( 11)  3.617818  3.199256  1.755879  1.755887
   H ( 12)  4.893320  4.328749  3.127270  4.292036  3.617620
   H ( 13)  4.292066  3.617844  4.292051  4.893320  4.328736  1.766044
   H ( 14)  4.328714  3.199220  3.617868  4.328777  3.199260  1.755885
   K ( 15)  4.952437  6.021946  4.952773  4.952749  6.022137  4.952897
             H ( 13)   H ( 14)
   H ( 14)  1.755883
   K ( 15)  4.952619  6.022138
 
 A cutoff of  1.0D-14 yielded   9154 shell pairs
 There are     63588 function pairs (     77633 Cartesian)
 Smallest overlap matrix eigenvalue = 2.30E-05

 Scale SEOQF with 1.000000e-01/1.000000e-01/1.000000e-01

 Standard Electronic Orientation quadrupole field applied
 Nucleus-field energy     =    -0.0000000247 hartrees

 -----------------------------------------------------------------------
  General SCF calculation program by
  Eric Jon Sundstrom, Paul Horn, Yuezhi Mao, Dmitri Zuev, Alec White,
  David Stuck, Shaama M.S., Shane Yost, Joonho Lee, David Small,
  Daniel Levine, Susi Lehtola, Hugh Burton, Evgeny Epifanovsky,
  Bang C. Huynh
 -----------------------------------------------------------------------
================================================================
                 ALMO-EDA with the EDA2 driver                  
================================================================
 The second-generation ALMO-EDA (for DFT):                      
 P. R. Horn, Y. Mao and M. Head-Gordon, PCCP, 18, 23067 (2016)  
 Y. Mao et al. Annu. Rev. Phys. Chem. 72, 641 (2021)            
 Decomposition of the frozen energy:                            
 P. R. Horn, Y. Mao and M. Head-Gordon, JCP, 144, 114107 (2016) 
 FERF model for polarization:                                   
 P. R. Horn and M. Head-Gordon, JCP, 143, 114111 (2015)         
================================================================
 Using eda2 option set 1
 Option set summary: Frozen orbital wavefunction, initial wavefunction decomposition, and nDQ polarization.
--------------------------------
Printing EDA Options
--------------------------------
eda_child_super_basis      0
fragmo_guess_mode          0
child_mp                   1
child_mp_orders            232
cls_elec                   1
cls_disp                   1
scfmi_mode                 1
scfmi_occs                 0
scfmi_virts                0
frz_relax                  0
frz_relax_method           0
dc_pen_start               0
dc_pen_conv                0
dc_pen_increment           0
dc_pen_steps               0
dc_pen_thresh_factor       0
dc_pen_pre_newton_thresh   0
frz_ortho_decomp           0
frz_ortho_decomp_conv      6
plot_mo_ortho_frz          0
frgm_method                2
scfmi_freeze_ss            0
separate_rehyb             0
plot_diff_den              0
eda_nocv                   0
eda_vct_relax              1
disp_free_x                0
disp_free_c                0
eda_bsse                   0
eda_pct_a                  0
eda_covp                   0
eda_pol_a                  1
eda_vct_a                  1
print_level                1
--------------------------------
 Attempting to make child job directory: /data/scratch/Me3SiH_K_eda2_op1_wB97X-V_tzvppd20240529231227//Frg1/
 Attempting to make child job directory: /data/scratch/Me3SiH_K_eda2_op1_wB97X-V_tzvppd20240529231227//Frg2/
 Creating input file /data/scratch/Me3SiH_K_eda2_op1_wB97X-V_tzvppd20240529231227/Frg1.input
 using default PutDataFrgm: nothing
 calling putenv with: QCSCRATCH=/data/scratch/Me3SiH_K_eda2_op1_wB97X-V_tzvppd20240529231227/ 
 Spawning Job For Fragment 0
 Done Job For Fragment 0
 calling putenv with: QCSCRATCH=/data/scratch 
 calling putenv with: QCTHREADS=16 
 Creating input file /data/scratch/Me3SiH_K_eda2_op1_wB97X-V_tzvppd20240529231227/Frg2.input
 using default PutDataFrgm: nothing
 calling putenv with: QCSCRATCH=/data/scratch/Me3SiH_K_eda2_op1_wB97X-V_tzvppd20240529231227/ 
 Spawning Job For Fragment 1
 Done Job For Fragment 1
 calling putenv with: QCSCRATCH=/data/scratch 
 calling putenv with: QCTHREADS=16 
Doing General SCFMI
 Exchange:     0.1670 Hartree-Fock + 1.0000 wB97X-V + LR-HF
 Correlation:  1.0000 wB97X-V
 Using Euler-Maclaurin-Lebedev (99,590) quadrature formula
 Nonlocal Correlation:  VV10 with C = 0.0100 and b = 6.00 and scale = 1.00000
 Grid used for NLC:  SG-1 standard quadrature
performing fock build before subrot guess so that all methods have access
Printing subrot_rss_gen Method Specification:
Occupied Subspace Method is 0
Virtual Subspace Method is 0
Energy of the unrelaxed supersystem initial determinant -1009.513920519954
write pseudocanon occs and virts to disk
write pseudocanon orbital energies to disk
 Exchange:     0.1670 Hartree-Fock + 1.0000 wB97X-V + LR-HF
 Correlation:  1.0000 wB97X-V
 Using Euler-Maclaurin-Lebedev (99,590) quadrature formula
 Nonlocal Correlation:  VV10 with C = 0.0100 and b = 6.00 and scale = 1.00000
 Grid used for NLC:  SG-1 standard quadrature
 Long-range K will be added via erf
 Coulomb attenuation parameter = 0.3 bohr**(-1)
 Nonlocal correlation = 0.243812832382
 Hartree-Fock
Doing General SCFMI
 Exchange:     0.1670 Hartree-Fock + 1.0000 wB97X-V + LR-HF
 Correlation:  1.0000 wB97X-V
 Using Euler-Maclaurin-Lebedev (99,590) quadrature formula
 Nonlocal Correlation:  VV10 with C = 0.0100 and b = 6.00 and scale = 1.00000
 Grid used for NLC:  SG-1 standard quadrature
performing fock build at end of subrot_r(subrot) constructor so that all methods have access
<S^2> of initial wavefunction before polarization iterations 0.0000000000
Beginning iterations for the determination of the polarized wavefunction
Energy prior to optimization (guess energy) = -1009.513920519954
Begin Timing: Total SCF Calculation
begin iterations for algorithm: DIIS         
the SCF tolerance is set to 1.00e-08
    1   -1009.5139205200      3.79e-04     00000 
    2   -1009.5219306228      1.45e-04     00000 
    3   -1009.5228388473      5.88e-05     00000 
    4   -1009.5230550227      1.83e-05     00000 
    5   -1009.5230775071      6.80e-06     00000 
    6   -1009.5230792854      1.55e-06     00000 
    7   -1009.5230793857      3.03e-07     00000 
    8   -1009.5230793881      1.00e-07     00000 
    9   -1009.5230793885      3.58e-08     00000 
   10   -1009.5230793885      1.11e-08     00000 
   11   -1009.5230793885      3.22e-09     00000 Convergence criterion met
write pseudocanon occs and virts to disk
write pseudocanon orbital energies to disk
Timing for Total SCF: 118.00s (wall), 1615.93s (cpu)
<S^2> of polarized wavefunction after polarization iterations 0.0000000000
Doing General SCFMI
 Exchange:     0.1670 Hartree-Fock + 1.0000 wB97X-V + LR-HF
 Correlation:  1.0000 wB97X-V
 Using Euler-Maclaurin-Lebedev (99,590) quadrature formula
 Nonlocal Correlation:  VV10 with C = 0.0100 and b = 6.00 and scale = 1.00000
 Grid used for NLC:  SG-1 standard quadrature
performing fock build at end of subrot_r(subrot) constructor so that all methods have access
GDM subspace size: 20
    1       0.0205467878      6.80e-03     00000 Preconditoned Steepest Descent
    2       0.1795894475      1.96e-02     00000 LineSearch Step
    3       0.0000035336      8.95e-05     00000 BFGS Step
    4       0.0000008421      4.37e-05     00000 BFGS Step
    5       0.0000025573      7.61e-05     00000 LineSearch Step
    6       0.0000001142      1.61e-05     00000 BFGS Step
    7       0.0000000010      1.51e-06     00000 BFGS Step
GDM subspace size: 20
    1       0.0001172831      1.96e-03     00000 Preconditoned Steepest Descent
    2       0.0010554336      5.89e-03     00000 LineSearch Step
    3       0.0000000000      2.93e-07     00000 BFGS Step
    4       0.0000000000      4.67e-08     00000 BFGS Step
    5       0.0000000000      1.31e-07     00000 LineSearch Step
    6       0.0000000000      7.22e-09     00000 BFGS Step
=========Fragment P Connection POL Analysis Result=========
P Connection Polarization Energy (kJ/mol)  : -24.046606
P Connection On-Fragment Charge Shift (me-): +18.805416
First Principle Polarization Energy (kJ/mol)  : -24.046606
First Principle On-Fragment Charge Shift (me-): +18.805416
___________________________________________________________
=========Fragment-wise P Connection POL Analysis=========
[Fragment 1]
E_1 (kJ/mol): -23.912802, Q_1 (me-): +18.666017
[Fragment 2]
E_2 (kJ/mol): -0.133803, Q_2 (me-): +0.139398
_________________________________________________________
==============================================================
           Fragment P Connection POL COVP Analysis            
==============================================================
Using COVP significance threshold 0.500 (kJ/mol)
--------------------------------------------------------------
 D  A  dE (kJ/mol)  dE %    dQ (me-)  dQ %    idx(D)  idx(A)
 1  1   -16.6594    69.28   14.5364   77.30     1       2   
 1  1   -1.8879     7.85    1.2268    6.52      3       4   
 1  1   -1.8879     7.85    1.2268    6.52      5       6   
 1  1   -0.6502     2.70    0.3676    1.95      7       8   
 1  1   -0.5459     2.27    0.2548    1.36      9       10  
 1  1   -0.5459     2.27    0.2548    1.36      11      12  
______________________________________________________________
relaxing scfmi constraint to allow all rotations in the entire AO span
Doing General SCFMI
 Exchange:     0.1670 Hartree-Fock + 1.0000 wB97X-V + LR-HF
 Correlation:  1.0000 wB97X-V
 Using Euler-Maclaurin-Lebedev (99,590) quadrature formula
 Nonlocal Correlation:  VV10 with C = 0.0100 and b = 6.00 and scale = 1.00000
 Grid used for NLC:  SG-1 standard quadrature
performing fock build at end of subrot_r(subrot) constructor so that all methods have access
<S^2> of polarized wavefunction before ct-allowed iterations 0.0000000000
Beginning iterations for the determination of the CT-Allowed wavefunction
Energy prior to optimization (guess energy) = -1009.523079388515
Begin Timing: Total SCF Calculation
begin iterations for algorithm: DIIS         
the SCF tolerance is set to 1.00e-08
    1   -1009.5230793885      2.01e-04     00000 
    2   -1009.5241060152      1.34e-05     00000 
    3   -1009.5241437178      2.99e-06     00000 
    4   -1009.5241458615      7.82e-07     00000 
    5   -1009.5241459090      1.56e-07     00000 
    6   -1009.5241459127      4.76e-08     00000 
    7   -1009.5241459130      1.17e-08     00000 
    8   -1009.5241459130      2.91e-09     00000 Convergence criterion met
write pseudocanon occs and virts to disk
write pseudocanon orbital energies to disk
Timing for Total SCF: 94.00s (wall), 1144.85s (cpu)
<S^2> of ct_allowed wavefunction after ct-allowed iterations 0.0000000000
GDM subspace size: 20
    1       0.0013721899      1.04e-03     00000 Preconditoned Steepest Descent
    2       0.0123174360      3.12e-03     00000 LineSearch Step
    3       0.0000000022      1.34e-06     00000 BFGS Step
    4       0.0000000001      3.40e-07     00000 BFGS Step
    5       0.0000000009      8.66e-07     00000 LineSearch Step
    6       0.0000000000      8.00e-08     00000 BFGS Step
    7       0.0000000000      1.83e-09     00000 BFGS Step

==============Non-Perturbative CT Analysis Result===============
Non-Perturbative CT Energy (kJ/mol)   : -2.800160
Non-Perturbative Charge Transfer (me-): +1.372190
First Principle CT Energy (kJ/mol)    : -2.800160
First Principle Charge Transfer (me-) : +1.372190
_______________________________________________________________
========Fragment-wise Non-Perturbative CT Analysis=======
---Fragment-wise CT energies (row to col, kJ/mol)
			1			2
	1   -0.127769   -1.792064
	2   -0.879569   -0.000758
---Fragment-wise charge transfer (row to col, me-)
			1			2
	1   -0.033674    1.323011
	2    0.093180   -0.010327
_________________________________________________________
==============================================================
              Non-Perturbative CT COVP Analysis               
==============================================================
Using COVP significance threshold 0.500 (kJ/mol)
--------------------------------------------------------------
 D  A  dE (kJ/mol)  dE %    dQ (me-)  dQ %    idx(D)  idx(A)
 1  2   -1.7631     62.96   1.3083    95.34     13      14  
______________________________________________________________
Done with restricted VCTA

================================
        Results of EDA2         
================================
Basic EDA Quantities
--------------------
Fragment Energies (Ha):
1   -409.8382619009
2   -599.6682043433
--------------------
  E_prp (kJ/mol) = 0.0000
  E_frz (kJ/mol) = -19.5714
  E_pol (kJ/mol) = -24.0469
  E_vct (kJ/mol) = -2.8002
  E_int (kJ/mol) = -46.4185
--------------------


Decomposition of frozen interaction energy
--------------------
  --------------------
  Classical Frozen Decomposition:
  --------------------
     E_cls_elec  (CLS ELEC)  (kJ/mol) = -30.2803
     E_mod_pauli (MOD PAULI) (kJ/mol) = 15.1910 (FRZ - CLS ELEC - CLS DISP)
     E_cls_disp  (CLS DISP)  (kJ/mol) = -4.4821
  --------------------
--------------------

Simplified EDA Summary (kJ/mol)
--------------------
 PREPARATION      0.0000
 FROZEN           -19.5714 (ELEC + PAULI + DISP)
[ELEC + PAULI = -15.0893, DISP = -4.4821]
 POLARIZATION    -24.0469
 CHARGE TRANSFER -2.8002
 TOTAL           -46.4185     (PRP + FRZ + POL + CT)
--------------------
 
 --------------------------------------------------------------
 
                    Orbital Energies (a.u.)
 --------------------------------------------------------------
 
 Alpha MOs
 -- Occupied --
 -129.96244   -66.23199   -13.49946   -10.83500   -10.83500   -10.83476
  -10.35295   -10.35295   -10.35294    -5.48394    -3.83552    -3.83252
   -3.83252    -1.70465    -1.05672    -1.05672    -1.05529    -0.96134
   -0.92031    -0.92031    -0.71699    -0.64297    -0.63000    -0.62999
   -0.60727    -0.60727    -0.59878    -0.53981    -0.51959    -0.51959
 -- Virtual --
   -0.13220    -0.08546    -0.08543    -0.07183    -0.04167    -0.03371
   -0.03370    -0.01669    -0.01669    -0.01643    -0.01272    -0.01269
   -0.00651     0.01450     0.01538     0.01539     0.03933     0.03934
    0.04388     0.04843     0.06711     0.06712     0.06966     0.06967
    0.07694     0.08379     0.09055     0.09055     0.09947     0.11610
    0.11612     0.14837     0.14838     0.16284     0.16697     0.16697
    0.17419     0.17466     0.17468     0.18172     0.19113     0.19219
    0.19220     0.21130     0.21130     0.21308     0.23450     0.23612
    0.23613     0.24489     0.24652     0.24653     0.25964     0.25964
    0.26400     0.27457     0.27458     0.27662     0.28555     0.29352
    0.29353     0.30404     0.30618     0.31795     0.31796     0.34204
    0.34205     0.35247     0.35248     0.36000     0.37868     0.37868
    0.39143     0.41871     0.41871     0.42524     0.42524     0.43180
    0.43180     0.43624     0.44435     0.45967     0.46314     0.46315
    0.48916     0.48917     0.49803     0.51135     0.53441     0.54180
    0.54180     0.54385     0.56439     0.56439     0.56561     0.60651
    0.60652     0.62589     0.62712     0.65911     0.65912     0.66669
    0.68379     0.68379     0.69377     0.69378     0.69714     0.72109
    0.72354     0.72355     0.72698     0.72698     0.73396     0.75748
    0.75957     0.75958     0.81949     0.83698     0.83699     0.86725
    0.86727     0.89400     0.90184     0.90185     0.90779     1.02549
    1.02549     1.02704     1.04165     1.04165     1.04619     1.04620
    1.05887     1.06450     1.06451     1.08926     1.14118     1.14120
    1.18031     1.18355     1.18355     1.19815     1.20310     1.20310
    1.21304     1.21305     1.22417     1.24592     1.24593     1.26286
    1.27534     1.35425     1.35425     1.37254     1.37598     1.37598
    1.38054     1.40797     1.40797     1.41032     1.46631     1.46631
    1.50535     1.53039     1.55804     1.55804     1.56496     1.59976
    1.59976     1.61813     1.61814     1.64054     1.64870     1.67879
    1.67880     1.69972     1.72541     1.72541     1.75360     1.76192
    1.76193     1.76412     1.84857     1.84857     1.88255     1.89569
    1.90168     1.90168     2.05330     2.05331     2.09607     2.24704
    2.24705     2.31985     2.35643     2.48193     2.48193     2.65304
    2.77007     2.77760     2.79161     2.79162     2.82099     2.82100
    2.84694     2.84695     2.87119     2.88143     2.88143     2.89745
    2.92440     2.92440     2.94449     2.94449     2.95014     3.00237
    3.02860     3.02860     3.07900     3.07900     3.08044     3.11286
    3.14296     3.14296     3.17875     3.22055     3.22055     3.24516
    3.24648     3.24648     3.29010     3.37996     3.40078     3.40079
    3.43800     3.43800     3.48080     3.49009     3.49009     3.51008
    3.51641     3.51641     3.56259     3.57553     3.57554     3.60346
    3.60347     3.60702     3.64832     3.64833     3.69702     3.70273
    3.70274     3.74349     3.79405     3.79406     3.83292     3.91520
    3.93565     3.93565     4.00393     4.00708     4.00708     4.04090
    4.04090     4.06322     4.07337     4.07337     4.12317     4.14819
    4.14819     4.19329     4.19329     4.19704     4.20853     4.24469
    4.24470     4.31880     4.31880     4.32390     4.32923     4.32923
    4.34958     4.37698     4.37698     4.38914     4.59194     4.59662
    4.59662     4.61918     4.62678     4.62679     4.64589     4.70887
    4.73930     4.73930     4.88294     4.88294     5.06392     5.08240
    5.08241     5.12384     5.12384     5.14938     5.16555     5.16556
    5.21328     5.21942     5.22985     5.22985     5.26832     5.29883
    5.29884     5.37701     5.38732     5.38732     5.43078     5.43078
    5.47203     5.50620     5.50620     5.52153     5.69320     5.72138
    5.72138     5.73114     5.73626     5.73626     6.80058     6.80059
    6.89592    12.32104    23.58807    23.60165    23.60165
 --------------------------------------------------------------
 
          Ground-State Mulliken Net Atomic Charges

     Atom                 Charge (a.u.)
  ----------------------------------------
      1 C                    -0.220262
      2 Si                    0.293281
      3 C                    -0.220317
      4 C                    -0.220326
      5 H                    -0.348879
      6 H                     0.071743
      7 H                     0.071742
      8 H                     0.094632
      9 H                     0.071786
     10 H                     0.071792
     11 H                     0.094661
     12 H                     0.071787
     13 H                     0.071788
     14 H                     0.094659
     15 K                     1.001912
  ----------------------------------------
  Sum of atomic charges =     1.000000

 -----------------------------------------------------------------
                    Cartesian Multipole Moments
 -----------------------------------------------------------------
    Charge (ESU x 10^10)
                 4.8032
    Dipole Moment (Debye)
         X      -0.0001      Y       0.0002      Z      -9.2951
       Tot       9.2951
    Quadrupole Moments (Debye-Ang)
        XX     -42.5641     XY       0.0000     YY     -42.5641
        XZ       0.0007     YZ      -0.0008     ZZ      -5.4185
    Octopole Moments (Debye-Ang^2)
       XXX      -2.0424    XXY       0.0011    XYY       2.0401
       YYY       0.0034    XXZ     -38.5792    XYZ       0.0001
       YYZ     -38.5798    XZZ      -0.0015    YZZ       0.0021
       ZZZ    -180.9104
    Hexadecapole Moments (Debye-Ang^3)
      XXXX    -301.2880   XXXY       0.0001   XXYY    -100.4297
      XYYY       0.0001   YYYY    -301.2893   XXXZ      -2.0809
      XXYZ       0.0030   XYYZ       2.0820   YYYZ       0.0101
      XXZZ    -241.2164   XYZZ       0.0002   YYZZ    -241.2180
      XZZZ       0.0116   YZZZ       0.0035   ZZZZ    -868.6790
 -----------------------------------------------------------------
 Total job time:  878.34s(wall), 5367.88s(cpu) 
 Wed May 29 23:49:12 2024

        *************************************************************
        *                                                           *
        *  Thank you very much for using Q-Chem.  Have a nice day.  *
        *                                                           *
        *************************************************************


