                  Welcome to Q-Chem
     A Quantum Leap Into The Future Of Chemistry


 Q-Chem 6.2 (devel), Q-Chem, Inc., Pleasanton, CA (2024)

 E. Epifanovsky,  A. T. B. Gilbert,  Xintian Feng,  Joonho Lee,  Yuezhi Mao,  
 N. Mardirossian,  P. Pokhilko,  A. White,  M. Wormit,  M. P. Coons,  
 A. L. Dempwolff,  Zhengting Gan,  D. Hait,  P. R. Horn,  L. D. Jacobson,  
 I. Kaliman,  J. Kussmann,  A. W. Lange,  Ka Un Lao,  D. S. Levine,  Jie Liu,  
 S. C. McKenzie,  A. F. Morrison,  K. D. Nanda,  F. Plasser,  D. R. Rehn,  
 M. L. Vidal,  Zhi-Qiang You,  Ying Zhu,  Huseyin Aksu,  B. Alam,  
 B. Albrecht,  A. Aldossary,  E. Alguire,  J. H. Andersen,  
 J. E. Arias-Martinez,  V. Athavale,  D. Barton,  K. Begam,  A. Behn,  
 N. Bellonzi,  Y. A. Bernard,  E. J. Berquist,  H. Burton,  A. Carreras,  
 K. Carter-Fenk,  Mathew Chow,  Romit Chakraborty,  Chandrima Chakravarty,  
 Junhan Chen,  A. D. Chien,  K. D. Closser,  V. Cofer-Shabica,  L. Cunha,  
 S. Dasgupta,  Jia Deng,  Joseph Dickinson,  M. de Wergifosse,  
 M. Diedenhofen,  Hainam Do,  Wenjie Dou,  S. Ehlert,  Po-Tung Fang,  
 S. Fatehi,  Qingguo Feng,  Jonathan Fetherolf,  T. Friedhoff,  
 Thomas Froitzheim,  Sarai Folkestad,  B. Ganoe,  J. Gayvert,  Qinghui Ge,  
 G. Gidofalvi,  M. Gimferrer,  M. Goldey,  Montgomery Gray,  J. Gomes,  
 C. Gonzalez-Espinoza,  S. Gulania,  A. Gunina,  J. A. Gyamfi,  
 M. W. D. Hanson-Heine,  P. H. P. Harbach,  A. W. Hauser,  M. F. Herbst,  
 M. Hernandez Vera,  M. Hodecker,  Z. C. Holden,  S. Houck,  Xunkun Huang,  
 Kerwin Hui,  B. C. Huynh,  K. Ikeda,  M. Ivanov,  Nayanthara K. Jayadev,  
 Hyunjun Ji,  Zuxin Jin,  Hanjie Jiang,  Subrata Jana,  B. Kaduk,  
 S. Kaehler,  R. Kang,  K. Khistyaev,  Jaehoon Kim,  Yongbin Kim,  
 P. Klunzinger,  Z. Koczor-Benda,  Joong Hoon Koh,  D. Kosenkov,  
 Saikiran Kotaru,  L. Koulias,  T. Kowalczyk,  C. M. Krauter,  K. Kue,  
 A. Kunitsa,  T. Kus,  A. Landau,  K. V. Lawler,  D. Lefrancois,  S. Lehtola,  
 Rain Li,  Shaozhi Li,  Tao E. Li,  Yi-Pei Li,  Jiashu Liang,  M. Liebenthal,  
 Hung-Hsuan Lin,  You-Sheng Lin,  Fenglai Liu,  Kuan-Yu Liu,  Xiao Liu,  
 M. Loipersberger,  A. Luenser,  C. Malbon,  Aniket Mandal,  Manisha,  
 A. Manjanath,  P. Manohar,  E. Mansoor,  S. F. Manzer,  Shan-Ping Mao,  
 A. V. Marenich,  T. Markovich,  S. Mason,  F. Matz,  S. A. Maurer,  
 Samuel May,  Alexandra McIsaac,  P. F. McLaughlin,  M. F. S. J. Menger,  
 J.-M. Mewes,  S. A. Mewes,  P. Morgante,  Mohammad Mostafanejad,  
 Madhubani Mukherjee,  J. W. Mullinax,  Quyen Nguyen,  Avik Kumar Ojha,  
 K. J. Oosterbaan,  Eno Paenurk,  Xiaoliang Pan,  G. Paran,  V. Parravicini,  
 Alexander C. Paul,  Suranjan K. Paul,  F. Pavosevic,  Zheng Pei,  S. Prager,  
 E. I. Proynov,  E. Ramos,  B. Rana,  A. E. Rask,  A. Rettig,  R. M. Richard,  
 F. Rob,  E. Rossomme,  T. Scheele,  M. Scheurer,  M. Schneider,  
 P. E. Schneider,  Tim K. Schramm,  N. Sergueev,  S. M. Sharada,  
 Hengyuan Shen,  W. Skomorowski,  D. W. Small,  C. J. Stein,  
 Alistair J. Sterling,  Yingli Su,  Yu-Chuan Su,  E. J. Sundstrom,  
 J. Talbot,  Zhen Tao,  J. Thirman,  Hung-Yi Tsai,  T. Tsuchimochi,  
 N. M. Tubman,  C. Utku,  S. P. Veccham,  O. Vydrov,  Rahel Weiss,  
 J. Wenzel,  Jonathan Wong,  J. Witte,  H. Wu,  Yanze Wu,  A. Yamada,  
 Chou-Hsun Yang,  Kun Yao,  S. Yeganeh,  S. R. Yost,  Qi Yu,  A. Zech,  
 F. Zeller,  Chongxiao Zhao,  Igor Ying Zhang,  Xing Zhang,  Yu Zhang,  
 D. Zuev,  A. Aspuru-Guzik,  A. T. Bell,  N. A. Besley,  K. B. Bravaya,  
 B. R. Brooks,  D. Casanova,  Jeng-Da Chai,  Hsing-Ta Chen,  S. Coriani,  
 C. J. Cramer,  A. E. DePrince, III,  R. A. DiStasio Jr.,  A. Dreuw,  
 B. D. Dunietz,  T. R. Furlani,  W. A. Goddard III,  S. Grimme,  
 S. Hammes-Schiffer,  T. Head-Gordon,  W. J. Hehre,  Chao-Ping Hsu,  
 T.-C. Jagau,  Yousung Jung,  A. Klamt,  Jing Kong,  D. S. Lambrecht,  
 Xiangyuan Li,  WanZhen Liang,  N. J. Mayhall,  C. W. McCurdy,  J. B. Neaton,  
 T. Neudecker,  C. Ochsenfeld,  J. A. Parkhill,  R. Peverati,  
 V. A. Rassolov,  Haisheng Ren,  Yihan Shao,  L. V. Slipchenko,  
 R. P. Steele,  J. E. Subotnik,  A. J. W. Thom,  A. Tkatchenko,  
 D. G. Truhlar,  T. Van Voorhis,  Fan Wang,  T. A. Wesolowski,  K. B. Whaley,  
 H. L. Woodcock III,  P. M. Zimmerman,  S. Faraji,  P. M. W. Gill,  
 M. Head-Gordon,  J. M. Herbert,  A. I. Krylov

 Contributors to earlier versions of Q-Chem not listed above: 
 R. D. Adamson,  B. Austin,  R. Baer,  J. Baker,  G. J. O. Beran,  
 K. Brandhorst,  S. T. Brown,  E. F. C. Byrd,  Arup K. Chakraborty,  
 G. K. L. Chan,  Chun-Min Chang,  Yunqing Chen,  C.-L. Cheng,  
 Siu Hung Chien,  D. M. Chipman,  D. L. Crittenden,  H. Dachsel,  
 R. J. Doerksen,  A. D. Dutoi,  R. G. Edgar,  J. Fosso-Tande,  
 L. Fusti-Molnar,  D. Ghosh,  A. Ghysels,  A. Golubeva-Zadorozhnaya,  
 J. Gonthier,  M. S. Gordon,  S. R. Gwaltney,  G. Hawkins,  J. E. Herr,  
 A. Heyden,  S. Hirata,  E. G. Hohenstein,  G. Kedziora,  F. J. Keil,  
 C. Kelley,  Jihan Kim,  R. A. King,  R. Z. Khaliullin,  P. P. Korambath,  
 W. Kurlancheek,  A. Laurent,  A. M. Lee,  M. S. Lee,  S. V. Levchenko,  
 Ching Yeh Lin,  D. Liotard,  E. Livshits,  R. C. Lochan,  I. Lotan,  
 L. A. Martinez-Martinez,  P. E. Maslen,  N. Nair,  D. P. O'Neill,  
 D. Neuhauser,  E. Neuscamman,  C. M. Oana,  R. Olivares-Amaya,  R. Olson,  
 T. M. Perrine,  B. Peters,  P. A. Pieniazek,  A. Prociuk,  Y. M. Rhee,  
 J. Ritchie,  M. A. Rohrdanz,  E. Rosta,  N. J. Russ,  H. F. Schaefer III,  
 M. W. Schmidt,  N. E. Schultz,  S. Sharma,  N. Shenvi,  C. D. Sherrill,  
 A. C. Simmonett,  A. Sodt,  T. Stein,  D. Stuck,  K. S. Thanthiriwatte,  
 V. Vanovschi,  L. Vogt,  Tao Wang,  A. Warshel,  M. A. Watson,  
 C. F. Williams,  Q. Wu,  X. Xu,  Jun Yang,  W. Zhang,  Yan Zhao

   Please cite Q-Chem as follows:
  "Software for the frontiers of quantum chemistry:
   An overview of developments in the Q-Chem 5 package"
   J. Chem. Phys. 155, 084801 (2021)
   https://doi.org/10.1063/5.0055522 (open access)

 Q-Chem 6.2.0 for Intel X86 EM64T Linux

 Parts of Q-Chem use Armadillo 9.900.5 (Nocturnal Misbehaviour).
 http://arma.sourceforge.net/

 Q-Chem begins on Wed May 29 23:19:18 2024  

 Host: 
0

     Scratch files written to /data/scratch/Me3SiH_BrCN_eda2_op1_wB97X-V_tzvppd20240529231227//
 Processing $rem in /home/ymao/my_qchem/qchem_ymao_quick_fix/config/preferences:
 Processing $rem in /home/ymao/.qchemrc:

 Q-Chem warning in module libgen/rem_setup.C, line 3380:

 Neither GIA nor STOLL is specified by user. Use STOLL as the default


 Checking the input file for inconsistencies... 	...done.

--------------------------------------------------------------
User input:
--------------------------------------------------------------
$molecule
0 1
--
0 1
H    -0.02822   -0.14563   -0.03591  
Si   -0.02665   -0.06263   1.45428   
C    1.74862    -0.04594   2.03285   
C    -0.90349   1.51043    1.95140   
C    -0.93024   -1.55523   2.12226   
H    2.27180    -0.94950   1.72553   
H    1.79468    0.01420    3.11946   
H    2.28721    0.80860    1.62757   
H    -0.40634   2.38728    1.54027   
H    -1.93555   1.51607    1.60429   
H    -0.91750   1.61247    3.03592   
H    -1.96271   -1.58126   1.77728   
H    -0.44905   -2.48086   1.81125   
H    -0.94459   -1.53608   3.21139   
--
0 1
Br   -2.38811   -0.20122   -1.35781  
C    -3.97333   -0.23477   -2.18027  
N    -5.01455   -0.25665   -2.71773  
$end

$rem
JOBTYPE  EDA
EDA2  1
METHOD  WB97X-V
BASIS  DEF2-TZVPPD
SYMMETRY  FALSE
SYM_IGNORE  TRUE
MEM_TOTAL  8000
MEM_STATIC  2000
BASIS_LIN_DEP_THRESH  6
THRESH  14
SCF_CONVERGENCE  8
GEN_SCFMAN  TRUE
MAXSCF  200
FD_MAT_VEC_PROD  FALSE
XC_GRID  000099000590
NL_GRID  1
SCF_GUESS  FRAGMO
FRZ_ORTHO_DECOMP  -1
EDA_CLS_DISP  TRUE
EDA_POL_A  TRUE
EDA_VCT_A  TRUE
$end
--------------------------------------------------------------
 ----------------------------------------------------------------
             Standard Nuclear Orientation (Angstroms)
    I     Atom           X                Y                Z
 ----------------------------------------------------------------
    1      H      -0.0282200000    -0.1456300000    -0.0359100000
    2      Si     -0.0266500000    -0.0626300000     1.4542800000
    3      C       1.7486200000    -0.0459400000     2.0328500000
    4      C      -0.9034900000     1.5104300000     1.9514000000
    5      C      -0.9302400000    -1.5552300000     2.1222600000
    6      H       2.2718000000    -0.9495000000     1.7255300000
    7      H       1.7946800000     0.0142000000     3.1194600000
    8      H       2.2872100000     0.8086000000     1.6275700000
    9      H      -0.4063400000     2.3872800000     1.5402700000
   10      H      -1.9355500000     1.5160700000     1.6042900000
   11      H      -0.9175000000     1.6124700000     3.0359200000
   12      H      -1.9627100000    -1.5812600000     1.7772800000
   13      H      -0.4490500000    -2.4808600000     1.8112500000
   14      H      -0.9445900000    -1.5360800000     3.2113900000
   15      Br     -2.3881100000    -0.2012200000    -1.3578100000
   16      C      -3.9733300000    -0.2347700000    -2.1802700000
   17      N      -5.0145500000    -0.2566500000    -2.7177300000
 ----------------------------------------------------------------
 Nuclear Repulsion Energy =         536.99684324 hartrees
 There are       45 alpha and       45 beta electrons
 Requested basis set is def2-TZVPPD
 There are 170 shells and 460 basis functions

 Total QAlloc Memory Limit   8000 MB
 Mega-Array Size      1956 MB
 MEM_STATIC part      2000 MB

 A cutoff of  1.0D-14 yielded  12547 shell pairs
 There are     90779 function pairs (    112976 Cartesian)
 Smallest overlap matrix eigenvalue = 1.92E-05

 Scale SEOQF with 1.000000e-01/1.000000e-01/1.000000e-01

 Standard Electronic Orientation quadrupole field applied
 Nucleus-field energy     =    -0.0000000092 hartrees

 -----------------------------------------------------------------------
  General SCF calculation program by
  Eric Jon Sundstrom, Paul Horn, Yuezhi Mao, Dmitri Zuev, Alec White,
  David Stuck, Shaama M.S., Shane Yost, Joonho Lee, David Small,
  Daniel Levine, Susi Lehtola, Hugh Burton, Evgeny Epifanovsky,
  Bang C. Huynh
 -----------------------------------------------------------------------
================================================================
                 ALMO-EDA with the EDA2 driver                  
================================================================
 The second-generation ALMO-EDA (for DFT):                      
 P. R. Horn, Y. Mao and M. Head-Gordon, PCCP, 18, 23067 (2016)  
 Y. Mao et al. Annu. Rev. Phys. Chem. 72, 641 (2021)            
 Decomposition of the frozen energy:                            
 P. R. Horn, Y. Mao and M. Head-Gordon, JCP, 144, 114107 (2016) 
 FERF model for polarization:                                   
 P. R. Horn and M. Head-Gordon, JCP, 143, 114111 (2015)         
================================================================
 Using eda2 option set 1
 Option set summary: Frozen orbital wavefunction, initial wavefunction decomposition, and nDQ polarization.
--------------------------------
Printing EDA Options
--------------------------------
eda_child_super_basis      0
fragmo_guess_mode          0
child_mp                   1
child_mp_orders            232
cls_elec                   1
cls_disp                   1
scfmi_mode                 1
scfmi_occs                 0
scfmi_virts                0
frz_relax                  0
frz_relax_method           0
dc_pen_start               0
dc_pen_conv                0
dc_pen_increment           0
dc_pen_steps               0
dc_pen_thresh_factor       0
dc_pen_pre_newton_thresh   0
frz_ortho_decomp           0
frz_ortho_decomp_conv      6
plot_mo_ortho_frz          0
frgm_method                2
scfmi_freeze_ss            0
separate_rehyb             0
plot_diff_den              0
eda_nocv                   0
eda_vct_relax              1
disp_free_x                0
disp_free_c                0
eda_bsse                   0
eda_pct_a                  0
eda_covp                   0
eda_pol_a                  1
eda_vct_a                  1
print_level                1
--------------------------------
 Attempting to make child job directory: /data/scratch/Me3SiH_BrCN_eda2_op1_wB97X-V_tzvppd20240529231227//Frg1/
 Attempting to make child job directory: /data/scratch/Me3SiH_BrCN_eda2_op1_wB97X-V_tzvppd20240529231227//Frg2/
 Creating input file /data/scratch/Me3SiH_BrCN_eda2_op1_wB97X-V_tzvppd20240529231227/Frg1.input
 using default PutDataFrgm: nothing
 calling putenv with: QCSCRATCH=/data/scratch/Me3SiH_BrCN_eda2_op1_wB97X-V_tzvppd20240529231227/ 
 Spawning Job For Fragment 0
 Done Job For Fragment 0
 calling putenv with: QCSCRATCH=/data/scratch 
 calling putenv with: QCTHREADS=16 
 Creating input file /data/scratch/Me3SiH_BrCN_eda2_op1_wB97X-V_tzvppd20240529231227/Frg2.input
 using default PutDataFrgm: nothing
 calling putenv with: QCSCRATCH=/data/scratch/Me3SiH_BrCN_eda2_op1_wB97X-V_tzvppd20240529231227/ 
 Spawning Job For Fragment 1
 Done Job For Fragment 1
 calling putenv with: QCSCRATCH=/data/scratch 
 calling putenv with: QCTHREADS=16 
Doing General SCFMI
 Exchange:     0.1670 Hartree-Fock + 1.0000 wB97X-V + LR-HF
 Correlation:  1.0000 wB97X-V
 Using Euler-Maclaurin-Lebedev (99,590) quadrature formula
 Nonlocal Correlation:  VV10 with C = 0.0100 and b = 6.00 and scale = 1.00000
 Grid used for NLC:  SG-1 standard quadrature
performing fock build before subrot guess so that all methods have access
Printing subrot_rss_gen Method Specification:
Occupied Subspace Method is 0
Virtual Subspace Method is 0
Energy of the unrelaxed supersystem initial determinant -3076.581055801360
write pseudocanon occs and virts to disk
write pseudocanon orbital energies to disk
 Exchange:     0.1670 Hartree-Fock + 1.0000 wB97X-V + LR-HF
 Correlation:  1.0000 wB97X-V
 Using Euler-Maclaurin-Lebedev (99,590) quadrature formula
 Nonlocal Correlation:  VV10 with C = 0.0100 and b = 6.00 and scale = 1.00000
 Grid used for NLC:  SG-1 standard quadrature
 Long-range K will be added via erf
 Coulomb attenuation parameter = 0.3 bohr**(-1)
 Nonlocal correlation = 0.363363602936
 Hartree-Fock
Doing General SCFMI
 Exchange:     0.1670 Hartree-Fock + 1.0000 wB97X-V + LR-HF
 Correlation:  1.0000 wB97X-V
 Using Euler-Maclaurin-Lebedev (99,590) quadrature formula
 Nonlocal Correlation:  VV10 with C = 0.0100 and b = 6.00 and scale = 1.00000
 Grid used for NLC:  SG-1 standard quadrature
performing fock build at end of subrot_r(subrot) constructor so that all methods have access
<S^2> of initial wavefunction before polarization iterations 0.0000000000
Beginning iterations for the determination of the polarized wavefunction
Energy prior to optimization (guess energy) = -3076.581055801363
Begin Timing: Total SCF Calculation
begin iterations for algorithm: DIIS         
the SCF tolerance is set to 1.00e-08
    1   -3076.5810558014      1.28e-04     00000 
    2   -3076.5821209221      5.21e-05     00000 
    3   -3076.5822241073      2.93e-05     00000 
    4   -3076.5822453944      1.77e-05     00000 
    5   -3076.5822499065      1.28e-05     00000 
    6   -3076.5822527219      6.26e-06     00000 
    7   -3076.5822531349      2.23e-06     00000 
    8   -3076.5822531875      7.48e-07     00000 
    9   -3076.5822532279      3.52e-07     00000 
   10   -3076.5822532408      1.55e-07     00000 
   11   -3076.5822532432      5.92e-08     00000 
   12   -3076.5822532435      1.96e-08     00000 
   13   -3076.5822532435      9.24e-09     00000 Convergence criterion met
write pseudocanon occs and virts to disk
write pseudocanon orbital energies to disk
Timing for Total SCF: 286.00s (wall), 3629.72s (cpu)
<S^2> of polarized wavefunction after polarization iterations 0.0000000000
Doing General SCFMI
 Exchange:     0.1670 Hartree-Fock + 1.0000 wB97X-V + LR-HF
 Correlation:  1.0000 wB97X-V
 Using Euler-Maclaurin-Lebedev (99,590) quadrature formula
 Nonlocal Correlation:  VV10 with C = 0.0100 and b = 6.00 and scale = 1.00000
 Grid used for NLC:  SG-1 standard quadrature
performing fock build at end of subrot_r(subrot) constructor so that all methods have access
GDM subspace size: 20
    1       0.0019057109      2.08e-03     00000 Preconditoned Steepest Descent
    2       0.0171038569      6.21e-03     00000 LineSearch Step
    3       0.0000000035      2.83e-06     00000 BFGS Step
    4       0.0000000006      1.19e-06     00000 BFGS Step
    5       0.0000000024      2.35e-06     00000 LineSearch Step
    6       0.0000000001      4.01e-07     00000 BFGS Step
    7       0.0000000000      2.65e-08     00000 BFGS Step
GDM subspace size: 20
    1       0.0003900403      1.10e-03     00000 Preconditoned Steepest Descent
    2       0.0035091013      3.31e-03     00000 LineSearch Step
    3       0.0000000000      2.90e-07     00000 BFGS Step
    4       0.0000000000      8.84e-08     00000 BFGS Step
    5       0.0000000000      2.10e-07     00000 LineSearch Step
    6       0.0000000000      2.39e-08     00000 BFGS Step
    7       0.0000000000      7.97e-10     00000 BFGS Step
=========Fragment P Connection POL Analysis Result=========
P Connection Polarization Energy (kJ/mol)  : -3.143884
P Connection On-Fragment Charge Shift (me-): +2.023126
First Principle Polarization Energy (kJ/mol)  : -3.143884
First Principle On-Fragment Charge Shift (me-): +2.023126
___________________________________________________________
=========Fragment-wise P Connection POL Analysis=========
[Fragment 1]
E_1 (kJ/mol): -2.608734, Q_1 (me-): +1.674685
[Fragment 2]
E_2 (kJ/mol): -0.535150, Q_2 (me-): +0.348441
_________________________________________________________
==============================================================
           Fragment P Connection POL COVP Analysis            
==============================================================
Using COVP significance threshold 0.500 (kJ/mol)
--------------------------------------------------------------
 D  A  dE (kJ/mol)  dE %    dQ (me-)  dQ %    idx(D)  idx(A)
 1  1   -1.9717     62.72   1.3311    65.79     1       2   
______________________________________________________________
relaxing scfmi constraint to allow all rotations in the entire AO span
Doing General SCFMI
 Exchange:     0.1670 Hartree-Fock + 1.0000 wB97X-V + LR-HF
 Correlation:  1.0000 wB97X-V
 Using Euler-Maclaurin-Lebedev (99,590) quadrature formula
 Nonlocal Correlation:  VV10 with C = 0.0100 and b = 6.00 and scale = 1.00000
 Grid used for NLC:  SG-1 standard quadrature
performing fock build at end of subrot_r(subrot) constructor so that all methods have access
<S^2> of polarized wavefunction before ct-allowed iterations 0.0000000000
Beginning iterations for the determination of the CT-Allowed wavefunction
Energy prior to optimization (guess energy) = -3076.582253243492
Begin Timing: Total SCF Calculation
begin iterations for algorithm: DIIS         
the SCF tolerance is set to 1.00e-08
    1   -3076.5822532435      1.88e-04     00000 
    2   -3076.5842865431      1.78e-05     00000 
    3   -3076.5844128856      4.82e-06     00000 
    4   -3076.5844224701      3.31e-06     00000 
    5   -3076.5844234614      7.82e-07     00000 
    6   -3076.5844235514      2.80e-07     00000 
    7   -3076.5844235628      6.38e-08     00000 
    8   -3076.5844235635      2.11e-08     00000 
    9   -3076.5844235636      5.44e-09     00000 Convergence criterion met
write pseudocanon occs and virts to disk
write pseudocanon orbital energies to disk
Timing for Total SCF: 175.00s (wall), 2267.70s (cpu)
<S^2> of ct_allowed wavefunction after ct-allowed iterations 0.0000000000
GDM subspace size: 20
    1       0.0041190524      1.33e-03     00000 Preconditoned Steepest Descent
    2       0.0368203300      3.94e-03     00000 LineSearch Step
    3       0.0000000413      4.21e-06     00000 BFGS Step
    4       0.0000000058      1.57e-06     00000 BFGS Step
    5       0.0000000264      3.37e-06     00000 LineSearch Step
    6       0.0000000006      4.96e-07     00000 BFGS Step
    7       0.0000000000      2.58e-08     00000 BFGS Step

==============Non-Perturbative CT Analysis Result===============
Non-Perturbative CT Energy (kJ/mol)   : -5.698175
Non-Perturbative Charge Transfer (me-): +4.119052
First Principle CT Energy (kJ/mol)    : -5.698175
First Principle Charge Transfer (me-) : +4.119052
_______________________________________________________________
========Fragment-wise Non-Perturbative CT Analysis=======
---Fragment-wise CT energies (row to col, kJ/mol)
			1			2
	1   -0.050318   -4.337593
	2   -1.302070   -0.008194
---Fragment-wise charge transfer (row to col, me-)
			1			2
	1   -0.076450    3.731847
	2    0.553824   -0.090168
_________________________________________________________
==============================================================
              Non-Perturbative CT COVP Analysis               
==============================================================
Using COVP significance threshold 0.500 (kJ/mol)
--------------------------------------------------------------
 D  A  dE (kJ/mol)  dE %    dQ (me-)  dQ %    idx(D)  idx(A)
 1  2   -4.1282     72.45   3.6341    88.23     3       4   
 2  1   -0.5823     10.22   0.2826    6.86      5       6   
______________________________________________________________
Done with restricted VCTA

================================
        Results of EDA2         
================================
Basic EDA Quantities
--------------------
Fragment Energies (Ha):
1   -409.8393232853
2  -2666.7410386378
--------------------
  E_prp (kJ/mol) = -0.0000
  E_frz (kJ/mol) = -1.8218
  E_pol (kJ/mol) = -3.1439
  E_vct (kJ/mol) = -5.6982
  E_int (kJ/mol) = -10.6640
--------------------


Decomposition of frozen interaction energy
--------------------
  --------------------
  Classical Frozen Decomposition:
  --------------------
     E_cls_elec  (CLS ELEC)  (kJ/mol) = -14.6004
     E_mod_pauli (MOD PAULI) (kJ/mol) = 26.1864 (FRZ - CLS ELEC - CLS DISP)
     E_cls_disp  (CLS DISP)  (kJ/mol) = -13.4079
  --------------------
--------------------

Simplified EDA Summary (kJ/mol)
--------------------
 PREPARATION      -0.0000
 FROZEN           -1.8218 (ELEC + PAULI + DISP)
[ELEC + PAULI = 11.5861, DISP = -13.4079]
 POLARIZATION    -3.1439
 CHARGE TRANSFER -5.6982
 TOTAL           -10.6640     (PRP + FRZ + POL + CT)
--------------------
 
 --------------------------------------------------------------
 
                    Orbital Energies (a.u.)
 --------------------------------------------------------------
 
 Alpha MOs
 -- Occupied --
 -482.72614   -66.11914   -62.59916   -56.40591   -56.40125   -56.40123
  -14.43563   -10.36086   -10.25325   -10.25320   -10.25319    -8.86802
   -6.70056    -6.68547    -6.68544    -5.37183    -3.72218    -3.72101
   -3.72098    -2.82192    -2.81740    -2.81737    -2.80559    -2.80559
   -1.06087    -0.98619    -0.86082    -0.82093    -0.82081    -0.65759
   -0.60542    -0.54309    -0.53185    -0.53027    -0.51961    -0.51800
   -0.50988    -0.50965    -0.49912    -0.49682    -0.42417    -0.41915
   -0.41876    -0.41611    -0.41534
 -- Virtual --
    0.04356     0.05488     0.06083     0.06160     0.07044     0.08424
    0.08819     0.09030     0.09376     0.09388     0.11756     0.11785
    0.12371     0.13233     0.13441     0.15012     0.15647     0.16399
    0.16581     0.16624     0.17789     0.17999     0.18099     0.19279
    0.19587     0.19817     0.21108     0.21114     0.21687     0.22153
    0.24221     0.24409     0.24980     0.25670     0.26771     0.26863
    0.27805     0.28050     0.28353     0.28703     0.29703     0.30307
    0.30858     0.31729     0.32119     0.32302     0.32852     0.33313
    0.33643     0.33773     0.34269     0.35155     0.35801     0.35964
    0.36221     0.36910     0.37516     0.38134     0.38518     0.38865
    0.38893     0.39274     0.39639     0.41346     0.42785     0.42866
    0.43360     0.44446     0.45572     0.45863     0.46098     0.46344
    0.47466     0.47701     0.48096     0.48239     0.49725     0.49762
    0.50880     0.51535     0.51834     0.52248     0.52394     0.52985
    0.53080     0.53517     0.53783     0.54408     0.55377     0.55560
    0.56365     0.57373     0.57824     0.58065     0.59063     0.59231
    0.60825     0.61729     0.62279     0.63039     0.63980     0.65375
    0.65397     0.66399     0.66495     0.67589     0.68552     0.69569
    0.70828     0.71352     0.72719     0.73195     0.73893     0.74533
    0.74617     0.75075     0.75913     0.77964     0.77986     0.78522
    0.79955     0.80386     0.81215     0.81268     0.81606     0.81808
    0.82876     0.84678     0.85573     0.86116     0.88092     0.88205
    0.88816     0.90482     0.91427     0.91926     0.92713     0.92997
    0.93968     0.96813     0.97648     0.98073     1.00428     1.00515
    1.01534     1.05217     1.07054     1.12918     1.12956     1.13576
    1.14529     1.14658     1.16269     1.17154     1.18037     1.18103
    1.21508     1.28069     1.28248     1.28640     1.29264     1.30112
    1.31508     1.32069     1.32566     1.33311     1.34822     1.35311
    1.37734     1.39005     1.44937     1.45447     1.45901     1.47115
    1.47682     1.47970     1.48190     1.49229     1.50327     1.50370
    1.51629     1.55244     1.56295     1.57118     1.58343     1.58762
    1.59535     1.60303     1.60367     1.62481     1.64230     1.64963
    1.65234     1.65625     1.65824     1.66655     1.67588     1.68515
    1.68544     1.70557     1.71988     1.72219     1.72370     1.72649
    1.75249     1.75505     1.78520     1.78568     1.82297     1.83245
    1.83812     1.84471     1.84497     1.86121     1.86401     1.88935
    1.89732     1.90528     1.91652     1.92408     1.95964     1.96703
    1.97750     1.99384     2.01167     2.01474     2.02288     2.15063
    2.15562     2.16630     2.21417     2.21713     2.23805     2.34387
    2.35529     2.37862     2.44132     2.45952     2.57408     2.62196
    2.67425     2.68967     2.71321     2.73187     2.73198     2.74976
    2.88703     2.89133     2.89214     2.90530     2.92512     2.92543
    2.94869     2.95017     2.96461     2.97101     2.98164     2.98850
    2.99222     3.00062     3.02870     3.03637     3.03886     3.04432
    3.07195     3.09078     3.09678     3.13189     3.15283     3.16286
    3.16558     3.16909     3.17002     3.18590     3.19552     3.21155
    3.21733     3.25633     3.26214     3.28838     3.32384     3.33603
    3.34719     3.35908     3.35996     3.40182     3.47929     3.49163
    3.50603     3.51957     3.54108     3.54409     3.54698     3.55689
    3.57835     3.58869     3.59660     3.61404     3.62014     3.64797
    3.67109     3.68000     3.68733     3.70568     3.71414     3.71636
    3.72835     3.74886     3.79132     3.79787     3.83578     3.84660
    3.85643     3.87622     3.91684     3.98005     4.02412     4.03837
    4.04918     4.06105     4.06106     4.10461     4.10855     4.12230
    4.14135     4.14159     4.17122     4.17203     4.17969     4.21358
    4.23224     4.23770     4.26011     4.27367     4.29571     4.29971
    4.31953     4.32344     4.36128     4.38876     4.38896     4.42236
    4.42615     4.42713     4.43104     4.44183     4.44812     4.46069
    4.48062     4.48107     4.49369     4.52120     4.58846     4.58932
    4.69671     4.69973     4.72098     4.72969     4.72993     4.74396
    4.75436     4.82665     4.82845     4.82967     4.84064     4.85701
    4.90335     4.99230     4.99469     5.15811     5.16163     5.17232
    5.19360     5.19473     5.22307     5.22323     5.24750     5.26649
    5.26696     5.31304     5.32181     5.33006     5.33321     5.38047
    5.40199     5.40858     5.47518     5.48863     5.50358     5.53641
    5.53838     5.57259     5.60654     5.61387     5.62035     5.65653
    5.67773     5.70039     5.79738     5.81174     5.81895     5.83556
    5.84852     5.85059     5.89890     6.90038     6.91843     7.02712
    8.28783    12.46136    23.06297    23.70273    23.71883    23.73492
   32.41779
 --------------------------------------------------------------
 
          Ground-State Mulliken Net Atomic Charges

     Atom                 Charge (a.u.)
  ----------------------------------------
      1 H                    -0.173644
      2 Si                    0.103834
      3 C                    -0.202204
      4 C                    -0.199224
      5 C                    -0.199291
      6 H                     0.066209
      7 H                     0.080438
      8 H                     0.066216
      9 H                     0.069299
     10 H                     0.070666
     11 H                     0.081836
     12 H                     0.070644
     13 H                     0.069360
     14 H                     0.081877
     15 Br                    0.159870
     16 C                     0.072486
     17 N                    -0.218372
  ----------------------------------------
  Sum of atomic charges =     0.000000

 -----------------------------------------------------------------
                    Cartesian Multipole Moments
 -----------------------------------------------------------------
    Charge (ESU x 10^10)
                 0.0000
    Dipole Moment (Debye)
         X       3.3636      Y       0.1219      Z       2.6549
       Tot       4.2869
    Quadrupole Moments (Debye-Ang)
        XX     -87.5677     XY      -0.9903     YY     -64.1108
        XZ     -12.3462     YZ      -0.5498     ZZ     -68.7936
    Octopole Moments (Debye-Ang^2)
       XXX     423.2061    XXY      14.3756    XYY      97.6648
       YYY      23.1367    XXZ      63.2920    XYZ       3.2863
       YYZ     -13.4286    XZZ     135.1395    YZZ      10.0560
       ZZZ      -5.7170
    Hexadecapole Moments (Debye-Ang^3)
      XXXX   -3172.2575   XXXY    -102.4900   XXYY    -448.7406
      XYYY     -63.8626   YYYY    -343.6556   XXXZ   -1000.4374
      XXYZ     -28.1538   XYYZ    -177.1725   YYYZ     -22.0185
      XXZZ    -877.3915   XYZZ     -33.0056   YYZZ    -304.4793
      XZZZ    -675.2734   YZZZ     -25.0525   ZZZZ   -1465.8002
 -----------------------------------------------------------------
 Total job time:  1435.73s(wall), 10845.71s(cpu) 
 Wed May 29 23:43:13 2024

        *************************************************************
        *                                                           *
        *  Thank you very much for using Q-Chem.  Have a nice day.  *
        *                                                           *
        *************************************************************


