
Running Job 1 of 2 CH3SH_water_Cs_optfreq_wB97X-V_svpd.in
qchem CH3SH_water_Cs_optfreq_wB97X-V_svpd.in_2837389.0 /data/scratch/CH3SH_water_Cs_optfreq_wB97X-V_svpd20241113015637/ 1
/opt/qchem/6.2.0/exe/qcprog.exe_s CH3SH_water_Cs_optfreq_wB97X-V_svpd.in_2837389.0 /data/scratch/CH3SH_water_Cs_optfreq_wB97X-V_svpd20241113015637/
                  Welcome to Q-Chem
     A Quantum Leap Into The Future Of Chemistry


 Q-Chem 6.2, Q-Chem, Inc., Pleasanton, CA (2024)

 E. Epifanovsky,  A. T. B. Gilbert,  Xintian Feng,  Joonho Lee,  Yuezhi Mao,  
 N. Mardirossian,  P. Pokhilko,  A. White,  M. Wormit,  M. P. Coons,  
 A. L. Dempwolff,  Zhengting Gan,  D. Hait,  P. R. Horn,  L. D. Jacobson,  
 I. Kaliman,  J. Kussmann,  A. W. Lange,  Ka Un Lao,  D. S. Levine,  Jie Liu,  
 S. C. McKenzie,  A. F. Morrison,  K. D. Nanda,  F. Plasser,  D. R. Rehn,  
 M. L. Vidal,  Zhi-Qiang You,  Ying Zhu,  Huseyin Aksu,  B. Alam,  
 B. Albrecht,  A. Aldossary,  E. Alguire,  J. H. Andersen,  
 J. E. Arias-Martinez,  V. Athavale,  D. Barton,  K. Begam,  A. Behn,  
 N. Bellonzi,  Y. A. Bernard,  E. J. Berquist,  H. Burton,  A. Carreras,  
 K. Carter-Fenk,  Mathew Chow,  Romit Chakraborty,  Chandrima Chakravarty,  
 Junhan Chen,  A. D. Chien,  K. D. Closser,  V. Cofer-Shabica,  L. Cunha,  
 S. Dasgupta,  Jia Deng,  Joseph Dickinson,  M. de Wergifosse,  
 M. Diedenhofen,  Hainam Do,  Wenjie Dou,  S. Ehlert,  Po-Tung Fang,  
 S. Fatehi,  Qingguo Feng,  Jonathan Fetherolf,  T. Friedhoff,  
 Thomas Froitzheim,  Sarai Folkestad,  B. Ganoe,  J. Gayvert,  Qinghui Ge,  
 G. Gidofalvi,  M. Gimferrer,  M. Goldey,  Montgomery Gray,  J. Gomes,  
 C. Gonzalez-Espinoza,  S. Gulania,  A. Gunina,  J. A. Gyamfi,  
 M. W. D. Hanson-Heine,  P. H. P. Harbach,  A. W. Hauser,  M. F. Herbst,  
 M. Hernandez Vera,  M. Hodecker,  Z. C. Holden,  S. Houck,  Xunkun Huang,  
 Kerwin Hui,  B. C. Huynh,  K. Ikeda,  M. Ivanov,  Nayanthara K. Jayadev,  
 Hyunjun Ji,  Zuxin Jin,  Hanjie Jiang,  Subrata Jana,  B. Kaduk,  
 S. Kaehler,  R. Kang,  K. Khistyaev,  Jaehoon Kim,  Yongbin Kim,  
 P. Klunzinger,  Z. Koczor-Benda,  Joong Hoon Koh,  D. Kosenkov,  
 Saikiran Kotaru,  L. Koulias,  T. Kowalczyk,  C. M. Krauter,  K. Kue,  
 A. Kunitsa,  T. Kus,  A. Landau,  K. V. Lawler,  D. Lefrancois,  S. Lehtola,  
 Rain Li,  Shaozhi Li,  Tao E. Li,  Yi-Pei Li,  Jiashu Liang,  M. Liebenthal,  
 Hung-Hsuan Lin,  You-Sheng Lin,  Fenglai Liu,  Kuan-Yu Liu,  Xiao Liu,  
 M. Loipersberger,  A. Luenser,  C. Malbon,  Aniket Mandal,  Manisha,  
 A. Manjanath,  P. Manohar,  E. Mansoor,  S. F. Manzer,  Shan-Ping Mao,  
 A. V. Marenich,  T. Markovich,  S. Mason,  F. Matz,  S. A. Maurer,  
 Samuel May,  Alexandra McIsaac,  P. F. McLaughlin,  M. F. S. J. Menger,  
 J.-M. Mewes,  S. A. Mewes,  P. Morgante,  Mohammad Mostafanejad,  
 Madhubani Mukherjee,  J. W. Mullinax,  Quyen Nguyen,  Avik Kumar Ojha,  
 K. J. Oosterbaan,  Eno Paenurk,  Xiaoliang Pan,  G. Paran,  V. Parravicini,  
 Alexander C. Paul,  Suranjan K. Paul,  F. Pavosevic,  Zheng Pei,  S. Prager,  
 E. I. Proynov,  E. Ramos,  B. Rana,  A. E. Rask,  A. Rettig,  R. M. Richard,  
 F. Rob,  E. Rossomme,  T. Scheele,  M. Scheurer,  M. Schneider,  
 P. E. Schneider,  Tim K. Schramm,  N. Sergueev,  S. M. Sharada,  
 Hengyuan Shen,  W. Skomorowski,  D. W. Small,  C. J. Stein,  
 Alistair J. Sterling,  Yingli Su,  Yu-Chuan Su,  E. J. Sundstrom,  
 J. Talbot,  Zhen Tao,  J. Thirman,  Hung-Yi Tsai,  T. Tsuchimochi,  
 N. M. Tubman,  C. Utku,  S. P. Veccham,  O. Vydrov,  Rahel Weiss,  
 J. Wenzel,  Jonathan Wong,  J. Witte,  H. Wu,  Yanze Wu,  A. Yamada,  
 Chou-Hsun Yang,  Kun Yao,  S. Yeganeh,  S. R. Yost,  Qi Yu,  A. Zech,  
 F. Zeller,  Chongxiao Zhao,  Igor Ying Zhang,  Xing Zhang,  Yu Zhang,  
 D. Zuev,  A. Aspuru-Guzik,  A. T. Bell,  N. A. Besley,  K. B. Bravaya,  
 B. R. Brooks,  D. Casanova,  Jeng-Da Chai,  Hsing-Ta Chen,  S. Coriani,  
 C. J. Cramer,  A. E. DePrince, III,  R. A. DiStasio Jr.,  A. Dreuw,  
 B. D. Dunietz,  T. R. Furlani,  W. A. Goddard III,  S. Grimme,  
 S. Hammes-Schiffer,  T. Head-Gordon,  W. J. Hehre,  Chao-Ping Hsu,  
 T.-C. Jagau,  Yousung Jung,  A. Klamt,  Jing Kong,  D. S. Lambrecht,  
 Xiangyuan Li,  WanZhen Liang,  N. J. Mayhall,  C. W. McCurdy,  J. B. Neaton,  
 T. Neudecker,  C. Ochsenfeld,  J. A. Parkhill,  R. Peverati,  
 V. A. Rassolov,  Haisheng Ren,  Yihan Shao,  L. V. Slipchenko,  
 R. P. Steele,  J. E. Subotnik,  A. J. W. Thom,  A. Tkatchenko,  
 D. G. Truhlar,  T. Van Voorhis,  Fan Wang,  T. A. Wesolowski,  K. B. Whaley,  
 H. L. Woodcock III,  P. M. Zimmerman,  S. Faraji,  P. M. W. Gill,  
 M. Head-Gordon,  J. M. Herbert,  A. I. Krylov

 Contributors to earlier versions of Q-Chem not listed above: 
 R. D. Adamson,  B. Austin,  R. Baer,  J. Baker,  G. J. O. Beran,  
 K. Brandhorst,  S. T. Brown,  E. F. C. Byrd,  Arup K. Chakraborty,  
 G. K. L. Chan,  Chun-Min Chang,  Yunqing Chen,  C.-L. Cheng,  
 Siu Hung Chien,  D. M. Chipman,  D. L. Crittenden,  H. Dachsel,  
 R. J. Doerksen,  A. D. Dutoi,  R. G. Edgar,  J. Fosso-Tande,  
 L. Fusti-Molnar,  D. Ghosh,  A. Ghysels,  A. Golubeva-Zadorozhnaya,  
 J. Gonthier,  M. S. Gordon,  S. R. Gwaltney,  G. Hawkins,  J. E. Herr,  
 A. Heyden,  S. Hirata,  E. G. Hohenstein,  G. Kedziora,  F. J. Keil,  
 C. Kelley,  Jihan Kim,  R. A. King,  R. Z. Khaliullin,  P. P. Korambath,  
 W. Kurlancheek,  A. Laurent,  A. M. Lee,  M. S. Lee,  S. V. Levchenko,  
 Ching Yeh Lin,  D. Liotard,  E. Livshits,  R. C. Lochan,  I. Lotan,  
 L. A. Martinez-Martinez,  P. E. Maslen,  N. Nair,  D. P. O'Neill,  
 D. Neuhauser,  E. Neuscamman,  C. M. Oana,  R. Olivares-Amaya,  R. Olson,  
 T. M. Perrine,  B. Peters,  P. A. Pieniazek,  A. Prociuk,  Y. M. Rhee,  
 J. Ritchie,  M. A. Rohrdanz,  E. Rosta,  N. J. Russ,  H. F. Schaefer III,  
 M. W. Schmidt,  N. E. Schultz,  S. Sharma,  N. Shenvi,  C. D. Sherrill,  
 A. C. Simmonett,  A. Sodt,  T. Stein,  D. Stuck,  K. S. Thanthiriwatte,  
 V. Vanovschi,  L. Vogt,  Tao Wang,  A. Warshel,  M. A. Watson,  
 C. F. Williams,  Q. Wu,  X. Xu,  Jun Yang,  W. Zhang,  Yan Zhao

   Please cite Q-Chem as follows:
  "Software for the frontiers of quantum chemistry:
   An overview of developments in the Q-Chem 5 package"
   J. Chem. Phys. 155, 084801 (2021)
   https://doi.org/10.1063/5.0055522 (open access)

 Q-Chem 6.2.0 for Intel X86 EM64T Linux

 Parts of Q-Chem use Armadillo 9.900.5 (Nocturnal Misbehaviour).
 http://arma.sourceforge.net/

 Q-Chem begins on Wed Nov 13 01:56:37 2024  

 Host: 
0

     Scratch files written to /data/scratch/CH3SH_water_Cs_optfreq_wB97X-V_svpd20241113015637//
 May224 |scratch|qcdevops|jenkins|workspace|build_RNUM -1
 Processing $rem in /opt/qchem/6.2.0/config/preferences:
 Processing $rem in /home/ymao/.qchemrc:

 Checking the input file for inconsistencies... 	...done.

--------------------------------------------------------------
User input:
--------------------------------------------------------------
$molecule
0 1
S    0.00000    -0.62786   -0.73337
H    0.00000    -0.20070   0.52934
O    0.00000    0.26034    2.49637
H    -0.77319   -0.10988   2.92861
H    0.77319    -0.10988   2.92861
C    0.00000    1.02810    -1.48917
H    0.00000    0.88114    -2.56443
H    -0.89329   1.56501    -1.18564
H    0.89329    1.56501    -1.18564
$end

$rem
JOBTYPE  OPT
METHOD  WB97X-V
BASIS  DEF2-SVPD
SYMMETRY  FALSE
SYM_IGNORE  FALSE
MEM_TOTAL  8000
MEM_STATIC  2000
BASIS_LIN_DEP_THRESH  6
THRESH  14
SCF_CONVERGENCE  8
FD_MAT_VEC_PROD  FALSE
XC_GRID  000099000590
NL_GRID  1
MAX_SCF_CYCLES  200
GEOM_OPT_MAX_CYCLES  200
GEOM_OPT_DRIVER  OPTIMIZE
GEOM_OPT_TOL_GRADIENT  100
GEOM_OPT_TOL_DISPLACEMENT  100
GEOM_OPT_TOL_ENERGY  10
$end

--------------------------------------------------------------
 ----------------------------------------------------------------
             Standard Nuclear Orientation (Angstroms)
    I     Atom           X                Y                Z
 ----------------------------------------------------------------
    1      S       0.7249741271     0.7090195971     0.0000000000
    2      H      -0.5185607086     0.2288911537    -0.0000000000
    3      O      -2.4643551869    -0.3148447661    -0.0000000000
    4      H      -2.9118511265     0.0367823803     0.7731900000
    5      H      -2.9118511265     0.0367823803    -0.7731900000
    6      C       1.5500640432    -0.9135289513     0.0000000000
    7      H       2.6181547942    -0.7212701236     0.0000000000
    8      H       1.2694896851    -1.4627837542     0.8932900000
    9      H       1.2694896851    -1.4627837542    -0.8932900000
 ----------------------------------------------------------------
 Molecular Point Group                 Cs    NOp =  2
 Largest Abelian Subgroup              Cs    NOp =  2
 Nuclear Repulsion Energy =         104.03069401 hartrees
 There are       18 alpha and       18 beta electrons
 Requested basis set is def2-SVPD
 There are 52 shells and 118 basis functions

 Total QAlloc Memory Limit   8000 MB
 Mega-Array Size      1956 MB
 MEM_STATIC part      2000 MB

 A cutoff of  1.0D-14 yielded   1350 shell pairs
 There are      7036 function pairs (      7789 Cartesian)
 Smallest overlap matrix eigenvalue = 4.70E-04

 Scale SEOQF with 1.000000e-01/1.000000e-01/1.000000e-01

 Standard Electronic Orientation quadrupole field applied
 Nucleus-field energy     =     0.0000000046 hartrees
 Guess from superposition of atomic densities
 Warning:  Energy on first SCF cycle will be non-variational
 SAD guess density has 36.000000 electrons

 -----------------------------------------------------------------------
  General SCF calculation program by
  Eric Jon Sundstrom, Paul Horn, Yuezhi Mao, Dmitri Zuev, Alec White,
  David Stuck, Shaama M.S., Shane Yost, Joonho Lee, David Small,
  Daniel Levine, Susi Lehtola, Hugh Burton, Evgeny Epifanovsky,
  Bang C. Huynh
 -----------------------------------------------------------------------
 Exchange:     0.1670 Hartree-Fock + 1.0000 wB97X-V + LR-HF
 Correlation:  1.0000 wB97X-V
 Using Euler-Maclaurin-Lebedev (99,590) quadrature formula
 Nonlocal Correlation:  VV10 with C = 0.0100 and b = 6.00 and scale = 1.00000
 Grid used for NLC:  SG-1 standard quadrature
 using 16 threads for integral computing
 -------------------------------------------------------
 OpenMP Integral computing Module                
 Release: version 1.0, May 2013, Q-Chem Inc. Pittsburgh 
 -------------------------------------------------------
 A restricted SCF calculation will be
 performed using DIIS
 SCF converges when DIIS error is below 1.0e-08
 ---------------------------------------
  Cycle       Energy         DIIS error
 ---------------------------------------
    1    -514.9606171128      4.60e-02  
    2    -514.7708315448      6.23e-03  
    3    -514.7876797789      5.89e-03  
    4    -514.8298794696      4.85e-04  
    5    -514.8303027227      1.24e-04  
    6    -514.8303471200      3.83e-05  
    7    -514.8303511983      1.00e-05  
    8    -514.8303515667      3.83e-06  
    9    -514.8303516066      8.58e-07  
   10    -514.8303516092      1.20e-07  
   11    -514.8303516092      2.61e-08  
   12    -514.8303516092      4.54e-09  Convergence criterion met
 ---------------------------------------
 SCF time:   CPU 164.27s  wall 11.00s 
 SCF   energy =  -514.83035161
 Total energy =  -514.83035161
 
 --------------------------------------------------------------
             Orbital Energies (a.u.) and Symmetries
 --------------------------------------------------------------
 
 Alpha MOs, Restricted
 -- Occupied --                  
-88.827 -19.255 -10.300  -8.022  -5.984  -5.980  -5.974  -1.152
  1 A'    2 A'    3 A'    4 A'    5 A'    6 A'    1 A"    7 A'                 
 -0.896  -0.751  -0.674  -0.555  -0.531  -0.525  -0.485  -0.447
  8 A'    9 A'    2 A"   10 A'    3 A"   11 A'   12 A'   13 A'                 
 -0.411  -0.322
 14 A'    4 A"                                                                 
 -- Virtual --                   
  0.060   0.085   0.108   0.111   0.131   0.145   0.151   0.166
 15 A'   16 A'   17 A'    5 A"   18 A'    6 A"   19 A'   20 A'                 
  0.178   0.192   0.198   0.219   0.232   0.239   0.247   0.256
 21 A'    7 A"   22 A'   23 A'    8 A"   24 A'    9 A"   25 A'                 
  0.279   0.288   0.296   0.299   0.310   0.349   0.362   0.386
 26 A'   10 A"   27 A'   11 A"   28 A'   29 A'   12 A"   30 A'                 
  0.399   0.406   0.420   0.423   0.443   0.445   0.453   0.458
 31 A'   13 A"   32 A'   14 A"   15 A"   33 A'   34 A'   35 A'                 
  0.458   0.477   0.490   0.503   0.507   0.513   0.525   0.544
 16 A"   36 A'   37 A'   17 A"   38 A'   18 A"   39 A'   19 A"                 
  0.563   0.574   0.585   0.632   0.641   0.677   0.732   0.751
 40 A'   20 A"   41 A'   21 A"   42 A'   43 A'   44 A'   22 A"                 
  0.765   0.856   0.898   0.903   0.920   0.961   0.970   0.990
 45 A'   46 A'   23 A"   47 A'   48 A'   24 A"   49 A'   25 A"                 
  0.994   1.046   1.073   1.114   1.128   1.182   1.190   1.227
 50 A'   51 A'   52 A'   53 A'   26 A"   54 A'   27 A"   55 A'                 
  1.246   1.264   1.382   1.476   1.547   1.601   1.633   1.664
 28 A"   56 A'   57 A'   58 A'   59 A'   60 A'   29 A"   30 A"                 
  1.701   1.774   1.776   1.877   1.910   1.925   1.972   1.974
 61 A'   62 A'   31 A"   32 A"   33 A"   63 A'   34 A"   64 A'                 
  2.005   2.027   2.111   2.164   2.177   2.195   2.358   2.392
 65 A'   35 A"   66 A'   36 A"   67 A'   68 A'   37 A"   69 A'                 
  2.495   2.539   2.629   2.638   2.947   3.133   3.151   3.159
 70 A'   71 A'   38 A"   72 A'   73 A'   74 A'   39 A"   40 A"                 
  3.180   3.302   3.756   4.115
 75 A'   76 A'   77 A'   41 A"                                                 
 
 Beta MOs, Restricted
 -- Occupied --                  
-88.827 -19.255 -10.300  -8.022  -5.984  -5.980  -5.974  -1.152
  1 A'    2 A'    3 A'    4 A'    5 A'    6 A'    1 A"    7 A'                 
 -0.896  -0.751  -0.674  -0.555  -0.531  -0.525  -0.485  -0.447
  8 A'    9 A'    2 A"   10 A'    3 A"   11 A'   12 A'   13 A'                 
 -0.411  -0.322
 14 A'    4 A"                                                                 
 -- Virtual --                   
  0.060   0.085   0.108   0.111   0.131   0.145   0.151   0.166
 15 A'   16 A'   17 A'    5 A"   18 A'    6 A"   19 A'   20 A'                 
  0.178   0.192   0.198   0.219   0.232   0.239   0.247   0.256
 21 A'    7 A"   22 A'   23 A'    8 A"   24 A'    9 A"   25 A'                 
  0.279   0.288   0.296   0.299   0.310   0.349   0.362   0.386
 26 A'   10 A"   27 A'   11 A"   28 A'   29 A'   12 A"   30 A'                 
  0.399   0.406   0.420   0.423   0.443   0.445   0.453   0.458
 31 A'   13 A"   32 A'   14 A"   15 A"   33 A'   34 A'   35 A'                 
  0.458   0.477   0.490   0.503   0.507   0.513   0.525   0.544
 16 A"   36 A'   37 A'   17 A"   38 A'   18 A"   39 A'   19 A"                 
  0.563   0.574   0.585   0.632   0.641   0.677   0.732   0.751
 40 A'   20 A"   41 A'   21 A"   42 A'   43 A'   44 A'   22 A"                 
  0.765   0.856   0.898   0.903   0.920   0.961   0.970   0.990
 45 A'   46 A'   23 A"   47 A'   48 A'   24 A"   49 A'   25 A"                 
  0.994   1.046   1.073   1.114   1.128   1.182   1.190   1.227
 50 A'   51 A'   52 A'   53 A'   26 A"   54 A'   27 A"   55 A'                 
  1.246   1.264   1.382   1.476   1.547   1.601   1.633   1.664
 28 A"   56 A'   57 A'   58 A'   59 A'   60 A'   29 A"   30 A"                 
  1.701   1.774   1.776   1.877   1.910   1.925   1.972   1.974
 61 A'   62 A'   31 A"   32 A"   33 A"   63 A'   34 A"   64 A'                 
  2.005   2.027   2.111   2.164   2.177   2.195   2.358   2.392
 65 A'   35 A"   66 A'   36 A"   67 A'   68 A'   37 A"   69 A'                 
  2.495   2.539   2.629   2.638   2.947   3.133   3.151   3.159
 70 A'   71 A'   38 A"   72 A'   73 A'   74 A'   39 A"   40 A"                 
  3.180   3.302   3.756   4.115
 75 A'   76 A'   77 A'   41 A"                                                 
 --------------------------------------------------------------
 
          Ground-State Mulliken Net Atomic Charges

     Atom                 Charge (a.u.)
  ----------------------------------------
      1 S                    -0.450963
      2 H                     0.282064
      3 O                    -0.311833
      4 H                     0.169400
      5 H                     0.169400
      6 C                     0.169281
      7 H                    -0.016798
      8 H                    -0.005275
      9 H                    -0.005275
  ----------------------------------------
  Sum of atomic charges =     0.000000

 -----------------------------------------------------------------
                    Cartesian Multipole Moments
 -----------------------------------------------------------------
    Charge (ESU x 10^10)
                -0.0000
    Dipole Moment (Debye)
         X      -2.2931      Y      -0.6632      Z       0.0000
       Tot       2.3871
    Quadrupole Moments (Debye-Ang)
        XX     -17.5706     XY      -5.1456     YY     -29.9550
        XZ       0.0000     YZ      -0.0000     ZZ     -27.3987
    Octopole Moments (Debye-Ang^2)
       XXX     -37.4336    XXY       7.2916    XYY      -2.8600
       YYY      -1.9336    XXZ       0.0000    XYZ      -0.0000
       YYZ      -0.0000    XZZ     -12.4800    YZZ      -3.3515
       ZZZ      -0.0000
    Hexadecapole Moments (Debye-Ang^3)
      XXXX    -333.8387   XXXY     -25.0210   XXYY    -105.9251
      XYYY      -2.4887   YYYY    -128.8294   XXXZ       0.0000
      XXYZ      -0.0000   XYYZ       0.0000   YYYZ      -0.0000
      XXZZ     -63.9166   XYZZ      -2.2960   YYZZ     -29.2751
      XZZZ       0.0000   YZZZ      -0.0000   ZZZZ     -46.0100
 -----------------------------------------------------------------
 Calculating analytic gradient of the SCF energy
 Gradient of SCF Energy
            1           2           3           4           5           6
    1  -0.0102439   0.0082600  -0.0022645   0.0029424   0.0029424   0.0074915
    2  -0.0038023   0.0010589   0.0049732  -0.0019477  -0.0019477  -0.0117763
    3   0.0000000  -0.0000000   0.0000000  -0.0007802   0.0007802  -0.0000000
            7           8           9
    1  -0.0088812  -0.0001233  -0.0001233
    2   0.0006495   0.0063962   0.0063962
    3  -0.0000000  -0.0064208   0.0064208
 Max gradient component =       1.178E-02
 RMS gradient           =       5.030E-03
 Gradient time:  CPU 35.29 s  wall 2.21 s
 Geometry Optimization Parameters
   NAtoms,    NIC,     NZ,  NCons,   NDum,   NFix, NCnnct, MaxDiis
        9      43       0       0       0       0       0       0


** GEOMETRY OPTIMIZATION IN DELOCALIZED INTERNAL COORDINATES **
   Searching for a Minimum

   Optimization Cycle:   1

                       Coordinates (Angstroms)
     ATOM                X               Y               Z
      1  S         0.7249741271    0.7090195971    0.0000000000
      2  H        -0.5185607086    0.2288911537    0.0000000000
      3  O        -2.4643551869   -0.3148447661    0.0000000000
      4  H        -2.9118511265    0.0367823803    0.7731900000
      5  H        -2.9118511265    0.0367823803   -0.7731900000
      6  C         1.5500640432   -0.9135289513    0.0000000000
      7  H         2.6181547942   -0.7212701236    0.0000000000
      8  H         1.2694896851   -1.4627837542    0.8932900000
      9  H         1.2694896851   -1.4627837542   -0.8932900000
   Point Group: cs    Number of degrees of freedom:    13


   Energy is   -514.830351609


 Attempting to generate delocalized internal coordinates
 Initial Hessian constructed with Jon Baker's OPTIMIZE code

 13 Hessian modes will be used to form the next step
  Hessian Eigenvalues:
     0.041650    0.077456    0.099147    0.160000    0.160000    0.160000
     0.160000    0.199711    0.245817    0.269898    0.353347    0.353666
     0.554597

 Minimum search - taking simple RFO step
 Searching for Lamda that Minimizes Along All modes
 Value Taken    Lamda =  -0.00211136
 Step Taken.  Stepsize is  0.123925

                             Maximum     Tolerance    Cnvgd?
         Gradient           0.010053      0.000100      NO
         Displacement       0.066483      0.000100      NO
         Energy change     *********      0.000000      NO


 New Cartesian Coordinates Obtained by Inverse Iteration

 Displacement from previous Coordinates is:  0.334793
 ----------------------------------------------------------------
             Standard Nuclear Orientation (Angstroms)
    I     Atom           X                Y                Z
 ----------------------------------------------------------------
    1      S       0.7354179149     0.6976243951     0.0000000000
    2      H      -0.5364994259     0.2273852126     0.0000000000
    3      O      -2.5332392861    -0.3030284760     0.0000000000
    4      H      -2.9831099266     0.0629728875     0.7683340077
    5      H      -2.9831099266     0.0629728875    -0.7683340077
    6      C       1.5885316582    -0.9157474418     0.0000000000
    7      H       2.6675944134    -0.7122387123     0.0000000000
    8      H       1.3349843825    -1.4918382953     0.8998878880
    9      H       1.3349843825    -1.4918382953    -0.8998878880
 ----------------------------------------------------------------
 Molecular Point Group                 Cs    NOp =  2
 Largest Abelian Subgroup              Cs    NOp =  2
 Nuclear Repulsion Energy =         102.71568227 hartrees
 There are       18 alpha and       18 beta electrons
 Applying Cartesian multipole field
    Component          Value
    ---------          -----
     (2,0,0)        1.00000E-11
     (0,2,0)        2.00000E-11
     (0,0,2)       -3.00000E-11
 Nucleus-field energy     =     0.0000000047 hartrees
 Requested basis set is def2-SVPD
 There are 52 shells and 118 basis functions
 A cutoff of  1.0D-14 yielded   1346 shell pairs
 There are      7016 function pairs (      7769 Cartesian)
 Smallest overlap matrix eigenvalue = 5.03E-04
 Guess MOs from SCF MO coefficient file

 -----------------------------------------------------------------------
  General SCF calculation program by
  Eric Jon Sundstrom, Paul Horn, Yuezhi Mao, Dmitri Zuev, Alec White,
  David Stuck, Shaama M.S., Shane Yost, Joonho Lee, David Small,
  Daniel Levine, Susi Lehtola, Hugh Burton, Evgeny Epifanovsky,
  Bang C. Huynh
 -----------------------------------------------------------------------
 Exchange:     0.1670 Hartree-Fock + 1.0000 wB97X-V + LR-HF
 Correlation:  1.0000 wB97X-V
 Using Euler-Maclaurin-Lebedev (99,590) quadrature formula
 Nonlocal Correlation:  VV10 with C = 0.0100 and b = 6.00 and scale = 1.00000
 Grid used for NLC:  SG-1 standard quadrature
 A restricted SCF calculation will be
 performed using DIIS
 SCF converges when DIIS error is below 1.0e-08
 ---------------------------------------
  Cycle       Energy         DIIS error
 ---------------------------------------
    1    -514.8309504114      9.10e-04  
    2    -514.8314648957      1.12e-04  
    3    -514.8314930930      6.82e-05  
    4    -514.8315017893      1.61e-05  
    5    -514.8315027027      5.92e-06  
    6    -514.8315027806      1.80e-06  
    7    -514.8315027885      6.30e-07  
    8    -514.8315027897      7.36e-08  
    9    -514.8315027897      2.38e-08  
   10    -514.8315027897      6.00e-09  Convergence criterion met
 ---------------------------------------
 SCF time:   CPU 136.30s  wall 9.00s 
 SCF   energy =  -514.83150279
 Total energy =  -514.83150279
 
 --------------------------------------------------------------
             Orbital Energies (a.u.) and Symmetries
 --------------------------------------------------------------
 
 Alpha MOs, Restricted
 -- Occupied --                  
-88.830 -19.255 -10.305  -8.025  -5.987  -5.983  -5.977  -1.151
  1 A'    2 A'    3 A'    4 A'    5 A'    6 A'    1 A"    7 A'                 
 -0.893  -0.750  -0.669  -0.552  -0.527  -0.524  -0.485  -0.448
  8 A'    9 A'    2 A"   10 A'    3 A"   11 A'   12 A'   13 A'                 
 -0.410  -0.323
 14 A'    4 A"                                                                 
 -- Virtual --                   
  0.060   0.084   0.107   0.111   0.131   0.145   0.149   0.166
 15 A'   16 A'   17 A'    5 A"   18 A'    6 A"   19 A'   20 A'                 
  0.176   0.192   0.197   0.214   0.230   0.238   0.246   0.250
 21 A'    7 A"   22 A'   23 A'    8 A"   24 A'    9 A"   25 A'                 
  0.279   0.287   0.292   0.295   0.307   0.346   0.360   0.385
 26 A'   10 A"   27 A'   11 A"   28 A'   29 A'   12 A"   30 A'                 
  0.398   0.405   0.415   0.423   0.441   0.442   0.448   0.457
 31 A'   13 A"   32 A'   14 A"   15 A"   33 A'   34 A'   35 A'                 
  0.457   0.473   0.485   0.498   0.503   0.509   0.524   0.542
 16 A"   36 A'   37 A'   17 A"   38 A'   18 A"   39 A'   19 A"                 
  0.562   0.570   0.582   0.632   0.642   0.675   0.725   0.749
 40 A'   20 A"   41 A'   21 A"   42 A'   43 A'   44 A'   22 A"                 
  0.764   0.854   0.905   0.906   0.918   0.958   0.967   0.980
 45 A'   46 A'   23 A"   47 A'   48 A'   24 A"   49 A'   25 A"                 
  0.994   1.043   1.067   1.106   1.121   1.165   1.186   1.214
 50 A'   51 A'   52 A'   53 A'   26 A"   54 A'   27 A"   55 A'                 
  1.237   1.253   1.374   1.473   1.532   1.602   1.632   1.663
 28 A"   56 A'   57 A'   58 A'   59 A'   60 A'   29 A"   30 A"                 
  1.701   1.771   1.774   1.876   1.894   1.906   1.961   1.973
 61 A'   62 A'   31 A"   32 A"   33 A"   63 A'   34 A"   64 A'                 
  2.000   2.032   2.104   2.138   2.159   2.183   2.347   2.394
 65 A'   35 A"   66 A'   36 A"   67 A'   68 A'   37 A"   69 A'                 
  2.483   2.496   2.610   2.614   2.906   3.137   3.140   3.147
 70 A'   71 A'   38 A"   72 A'   73 A'   74 A'   39 A"   40 A"                 
  3.164   3.304   3.741   4.119
 75 A'   76 A'   77 A'   41 A"                                                 
 
 Beta MOs, Restricted
 -- Occupied --                  
-88.830 -19.255 -10.305  -8.025  -5.987  -5.983  -5.977  -1.151
  1 A'    2 A'    3 A'    4 A'    5 A'    6 A'    1 A"    7 A'                 
 -0.893  -0.750  -0.669  -0.552  -0.527  -0.524  -0.485  -0.448
  8 A'    9 A'    2 A"   10 A'    3 A"   11 A'   12 A'   13 A'                 
 -0.410  -0.323
 14 A'    4 A"                                                                 
 -- Virtual --                   
  0.060   0.084   0.107   0.111   0.131   0.145   0.149   0.166
 15 A'   16 A'   17 A'    5 A"   18 A'    6 A"   19 A'   20 A'                 
  0.176   0.192   0.197   0.214   0.230   0.238   0.246   0.250
 21 A'    7 A"   22 A'   23 A'    8 A"   24 A'    9 A"   25 A'                 
  0.279   0.287   0.292   0.295   0.307   0.346   0.360   0.385
 26 A'   10 A"   27 A'   11 A"   28 A'   29 A'   12 A"   30 A'                 
  0.398   0.405   0.415   0.423   0.441   0.442   0.448   0.457
 31 A'   13 A"   32 A'   14 A"   15 A"   33 A'   34 A'   35 A'                 
  0.457   0.473   0.485   0.498   0.503   0.509   0.524   0.542
 16 A"   36 A'   37 A'   17 A"   38 A'   18 A"   39 A'   19 A"                 
  0.562   0.570   0.582   0.632   0.642   0.675   0.725   0.749
 40 A'   20 A"   41 A'   21 A"   42 A'   43 A'   44 A'   22 A"                 
  0.764   0.854   0.905   0.906   0.918   0.958   0.967   0.980
 45 A'   46 A'   23 A"   47 A'   48 A'   24 A"   49 A'   25 A"                 
  0.994   1.043   1.067   1.106   1.121   1.165   1.186   1.214
 50 A'   51 A'   52 A'   53 A'   26 A"   54 A'   27 A"   55 A'                 
  1.237   1.253   1.374   1.473   1.532   1.602   1.632   1.663
 28 A"   56 A'   57 A'   58 A'   59 A'   60 A'   29 A"   30 A"                 
  1.701   1.771   1.774   1.876   1.894   1.906   1.961   1.973
 61 A'   62 A'   31 A"   32 A"   33 A"   63 A'   34 A"   64 A'                 
  2.000   2.032   2.104   2.138   2.159   2.183   2.347   2.394
 65 A'   35 A"   66 A'   36 A"   67 A'   68 A'   37 A"   69 A'                 
  2.483   2.496   2.610   2.614   2.906   3.137   3.140   3.147
 70 A'   71 A'   38 A"   72 A'   73 A'   74 A'   39 A"   40 A"                 
  3.164   3.304   3.741   4.119
 75 A'   76 A'   77 A'   41 A"                                                 
 --------------------------------------------------------------
 
          Ground-State Mulliken Net Atomic Charges

     Atom                 Charge (a.u.)
  ----------------------------------------
      1 S                    -0.455587
      2 H                     0.283912
      3 O                    -0.310763
      4 H                     0.169288
      5 H                     0.169288
      6 C                     0.101179
      7 H                     0.012824
      8 H                     0.014929
      9 H                     0.014929
  ----------------------------------------
  Sum of atomic charges =     0.000000

 -----------------------------------------------------------------
                    Cartesian Multipole Moments
 -----------------------------------------------------------------
    Charge (ESU x 10^10)
                 0.0000
    Dipole Moment (Debye)
         X      -2.2568      Y      -0.5962      Z      -0.0000
       Tot       2.3342
    Quadrupole Moments (Debye-Ang)
        XX     -17.2740     XY      -5.4701     YY     -29.8364
        XZ      -0.0000     YZ       0.0000     ZZ     -27.5149
    Octopole Moments (Debye-Ang^2)
       XXX     -38.8690    XXY       8.2203    XYY      -2.7336
       YYY      -1.6590    XXZ       0.0000    XYZ      -0.0000
       YYZ      -0.0000    XZZ     -12.5069    YZZ      -3.1146
       ZZZ      -0.0000
    Hexadecapole Moments (Debye-Ang^3)
      XXXX    -347.3969   XXXY     -27.2159   XXYY    -109.4195
      XYYY      -0.8518   YYYY    -127.9221   XXXZ       0.0000
      XXYZ      -0.0000   XYYZ      -0.0000   YYYZ       0.0000
      XXZZ     -67.1803   XYZZ      -1.9971   YYZZ     -29.0271
      XZZZ      -0.0000   YZZZ      -0.0000   ZZZZ     -46.2769
 -----------------------------------------------------------------
 Calculating analytic gradient of the SCF energy
 Gradient of SCF Energy
            1           2           3           4           5           6
    1  -0.0009837  -0.0035497   0.0008152   0.0007727   0.0007727   0.0034009
    2   0.0023857  -0.0007813   0.0012826  -0.0003352  -0.0003352  -0.0032459
    3   0.0000000  -0.0000000  -0.0000000  -0.0001277   0.0001277  -0.0000000
            7           8           9
    1  -0.0001589  -0.0005345  -0.0005345
    2  -0.0001531   0.0005912   0.0005912
    3   0.0000000   0.0000672  -0.0000672
 Max gradient component =       3.550E-03
 RMS gradient           =       1.320E-03
 Gradient time:  CPU 35.05 s  wall 2.20 s
 Geometry Optimization Parameters
   NAtoms,    NIC,     NZ,  NCons,   NDum,   NFix, NCnnct, MaxDiis
        9      43       0       0       0       0       0       0

 Cartesian Hessian Update
 Hessian updated using BFGS update


** GEOMETRY OPTIMIZATION IN DELOCALIZED INTERNAL COORDINATES **
   Searching for a Minimum

   Optimization Cycle:   2

                       Coordinates (Angstroms)
     ATOM                X               Y               Z
      1  S         0.7354179149    0.6976243951    0.0000000000
      2  H        -0.5364994259    0.2273852126    0.0000000000
      3  O        -2.5332392861   -0.3030284760    0.0000000000
      4  H        -2.9831099266    0.0629728875    0.7683340077
      5  H        -2.9831099266    0.0629728875   -0.7683340077
      6  C         1.5885316582   -0.9157474418    0.0000000000
      7  H         2.6675944134   -0.7122387123    0.0000000000
      8  H         1.3349843825   -1.4918382953    0.8998878880
      9  H         1.3349843825   -1.4918382953   -0.8998878880
   Point Group: cs    Number of degrees of freedom:    13


   Energy is   -514.831502790

 Hessian updated using BFGS update

 12 Hessian modes will be used to form the next step
  Hessian Eigenvalues:
     0.034081    0.077339    0.098011    0.149553    0.160000    0.166374
     0.199586    0.245502    0.296506    0.353556    0.375545    0.552550

 Minimum search - taking simple RFO step
 Searching for Lamda that Minimizes Along All modes
 Value Taken    Lamda =  -0.00027374
 Step Taken.  Stepsize is  0.078695

                             Maximum     Tolerance    Cnvgd?
         Gradient           0.002968      0.000100      NO
         Displacement       0.038736      0.000100      NO
         Energy change     -0.001151      0.000000      NO


 New Cartesian Coordinates Obtained by Inverse Iteration

 Displacement from previous Coordinates is:  0.098634
 ----------------------------------------------------------------
             Standard Nuclear Orientation (Angstroms)
    I     Atom           X                Y                Z
 ----------------------------------------------------------------
    1      S       0.7546824524     0.6989978547     0.0000000000
    2      H      -0.5187166357     0.2326698769     0.0000000000
    3      O      -2.5544406956    -0.3035266556     0.0000000000
    4      H      -3.0076291510     0.0642464959     0.7666896687
    5      H      -3.0076291510     0.0642464959    -0.7666896687
    6      C       1.5931703321    -0.9146074111     0.0000000000
    7      H       2.6744070247    -0.7131510046     0.0000000000
    8      H       1.3458550052    -1.4963057450     0.9000298904
    9      H       1.3458550052    -1.4963057450    -0.9000298904
 ----------------------------------------------------------------
 Molecular Point Group                 Cs    NOp =  2
 Largest Abelian Subgroup              Cs    NOp =  2
 Nuclear Repulsion Energy =         102.41963113 hartrees
 There are       18 alpha and       18 beta electrons
 Applying Cartesian multipole field
    Component          Value
    ---------          -----
     (2,0,0)        1.00000E-11
     (0,2,0)        2.00000E-11
     (0,0,2)       -3.00000E-11
 Nucleus-field energy     =     0.0000000048 hartrees
 Requested basis set is def2-SVPD
 There are 52 shells and 118 basis functions
 A cutoff of  1.0D-14 yielded   1342 shell pairs
 There are      6970 function pairs (      7714 Cartesian)
 Smallest overlap matrix eigenvalue = 5.07E-04
 Guess MOs from SCF MO coefficient file

 -----------------------------------------------------------------------
  General SCF calculation program by
  Eric Jon Sundstrom, Paul Horn, Yuezhi Mao, Dmitri Zuev, Alec White,
  David Stuck, Shaama M.S., Shane Yost, Joonho Lee, David Small,
  Daniel Levine, Susi Lehtola, Hugh Burton, Evgeny Epifanovsky,
  Bang C. Huynh
 -----------------------------------------------------------------------
 Exchange:     0.1670 Hartree-Fock + 1.0000 wB97X-V + LR-HF
 Correlation:  1.0000 wB97X-V
 Using Euler-Maclaurin-Lebedev (99,590) quadrature formula
 Nonlocal Correlation:  VV10 with C = 0.0100 and b = 6.00 and scale = 1.00000
 Grid used for NLC:  SG-1 standard quadrature
 A restricted SCF calculation will be
 performed using DIIS
 SCF converges when DIIS error is below 1.0e-08
 ---------------------------------------
  Cycle       Energy         DIIS error
 ---------------------------------------
    1    -514.8316491156      2.58e-04  
    2    -514.8317016401      2.60e-05  
    3    -514.8317048174      7.51e-06  
    4    -514.8317051053      4.62e-06  
    5    -514.8317051422      1.09e-06  
    6    -514.8317051459      2.74e-07  
    7    -514.8317051463      7.36e-08  
    8    -514.8317051463      2.56e-08  
    9    -514.8317051463      6.73e-09  Convergence criterion met
 ---------------------------------------
 SCF time:   CPU 123.77s  wall 8.00s 
 SCF   energy =  -514.83170515
 Total energy =  -514.83170515
 
 --------------------------------------------------------------
             Orbital Energies (a.u.) and Symmetries
 --------------------------------------------------------------
 
 Alpha MOs, Restricted
 -- Occupied --                  
-88.831 -19.255 -10.305  -8.026  -5.988  -5.984  -5.978  -1.150
  1 A'    2 A'    3 A'    4 A'    5 A'    6 A'    1 A"    7 A'                 
 -0.894  -0.750  -0.667  -0.551  -0.527  -0.524  -0.484  -0.448
  8 A'    9 A'    2 A"   10 A'    3 A"   11 A'   12 A'   13 A'                 
 -0.412  -0.324
 14 A'    4 A"                                                                 
 -- Virtual --                   
  0.060   0.084   0.107   0.111   0.131   0.145   0.150   0.166
 15 A'   16 A'   17 A'    5 A"   18 A'    6 A"   19 A'   20 A'                 
  0.176   0.192   0.197   0.215   0.229   0.237   0.246   0.250
 21 A'    7 A"   22 A'   23 A'    8 A"   24 A'    9 A"   25 A'                 
  0.279   0.287   0.292   0.294   0.306   0.345   0.359   0.384
 26 A'   10 A"   27 A'   11 A"   28 A'   29 A'   12 A"   30 A'                 
  0.397   0.405   0.415   0.423   0.440   0.442   0.448   0.457
 31 A'   13 A"   32 A'   14 A"   15 A"   33 A'   34 A'   35 A'                 
  0.457   0.472   0.485   0.497   0.502   0.508   0.524   0.541
 16 A"   36 A'   37 A'   17 A"   38 A'   18 A"   39 A'   19 A"                 
  0.561   0.570   0.582   0.631   0.643   0.674   0.722   0.747
 40 A'   20 A"   41 A'   21 A"   42 A'   43 A'   44 A'   22 A"                 
  0.763   0.853   0.906   0.906   0.917   0.957   0.964   0.978
 45 A'   46 A'   47 A'   23 A"   48 A'   24 A"   49 A'   25 A"                 
  0.993   1.044   1.066   1.104   1.120   1.164   1.185   1.210
 50 A'   51 A'   52 A'   53 A'   26 A"   54 A'   27 A"   55 A'                 
  1.235   1.251   1.372   1.472   1.524   1.607   1.632   1.662
 28 A"   56 A'   57 A'   58 A'   59 A'   60 A'   29 A"   30 A"                 
  1.701   1.772   1.775   1.871   1.892   1.903   1.960   1.975
 61 A'   62 A'   31 A"   32 A"   33 A"   63 A'   34 A"   64 A'                 
  2.001   2.035   2.102   2.133   2.157   2.181   2.344   2.398
 65 A'   35 A"   66 A'   36 A"   67 A'   68 A'   37 A"   69 A'                 
  2.471   2.492   2.607   2.612   2.899   3.138   3.138   3.146
 70 A'   71 A'   38 A"   72 A'   73 A'   39 A"   74 A'   40 A"                 
  3.163   3.305   3.737   4.120
 75 A'   76 A'   77 A'   41 A"                                                 
 
 Beta MOs, Restricted
 -- Occupied --                  
-88.831 -19.255 -10.305  -8.026  -5.988  -5.984  -5.978  -1.150
  1 A'    2 A'    3 A'    4 A'    5 A'    6 A'    1 A"    7 A'                 
 -0.894  -0.750  -0.667  -0.551  -0.527  -0.524  -0.484  -0.448
  8 A'    9 A'    2 A"   10 A'    3 A"   11 A'   12 A'   13 A'                 
 -0.412  -0.324
 14 A'    4 A"                                                                 
 -- Virtual --                   
  0.060   0.084   0.107   0.111   0.131   0.145   0.150   0.166
 15 A'   16 A'   17 A'    5 A"   18 A'    6 A"   19 A'   20 A'                 
  0.176   0.192   0.197   0.215   0.229   0.237   0.246   0.250
 21 A'    7 A"   22 A'   23 A'    8 A"   24 A'    9 A"   25 A'                 
  0.279   0.287   0.292   0.294   0.306   0.345   0.359   0.384
 26 A'   10 A"   27 A'   11 A"   28 A'   29 A'   12 A"   30 A'                 
  0.397   0.405   0.415   0.423   0.440   0.442   0.448   0.457
 31 A'   13 A"   32 A'   14 A"   15 A"   33 A'   34 A'   35 A'                 
  0.457   0.472   0.485   0.497   0.502   0.508   0.524   0.541
 16 A"   36 A'   37 A'   17 A"   38 A'   18 A"   39 A'   19 A"                 
  0.561   0.570   0.582   0.631   0.643   0.674   0.722   0.747
 40 A'   20 A"   41 A'   21 A"   42 A'   43 A'   44 A'   22 A"                 
  0.763   0.853   0.906   0.906   0.917   0.957   0.964   0.978
 45 A'   46 A'   47 A'   23 A"   48 A'   24 A"   49 A'   25 A"                 
  0.993   1.044   1.066   1.104   1.120   1.164   1.185   1.210
 50 A'   51 A'   52 A'   53 A'   26 A"   54 A'   27 A"   55 A'                 
  1.235   1.251   1.372   1.472   1.524   1.607   1.632   1.662
 28 A"   56 A'   57 A'   58 A'   59 A'   60 A'   29 A"   30 A"                 
  1.701   1.772   1.775   1.871   1.892   1.903   1.960   1.975
 61 A'   62 A'   31 A"   32 A"   33 A"   63 A'   34 A"   64 A'                 
  2.001   2.035   2.102   2.133   2.157   2.181   2.344   2.398
 65 A'   35 A"   66 A'   36 A"   67 A'   68 A'   37 A"   69 A'                 
  2.471   2.492   2.607   2.612   2.899   3.138   3.138   3.146
 70 A'   71 A'   38 A"   72 A'   73 A'   39 A"   74 A'   40 A"                 
  3.163   3.305   3.737   4.120
 75 A'   76 A'   77 A'   41 A"                                                 
 --------------------------------------------------------------
 
          Ground-State Mulliken Net Atomic Charges

     Atom                 Charge (a.u.)
  ----------------------------------------
      1 S                    -0.452359
      2 H                     0.282530
      3 O                    -0.310411
      4 H                     0.168730
      5 H                     0.168730
      6 C                     0.091945
      7 H                     0.018245
      8 H                     0.016295
      9 H                     0.016295
  ----------------------------------------
  Sum of atomic charges =     0.000000

 -----------------------------------------------------------------
                    Cartesian Multipole Moments
 -----------------------------------------------------------------
    Charge (ESU x 10^10)
                 0.0000
    Dipole Moment (Debye)
         X      -2.2341      Y      -0.5714      Z      -0.0000
       Tot       2.3061
    Quadrupole Moments (Debye-Ang)
        XX     -17.2497     XY      -5.5333     YY     -29.7950
        XZ      -0.0000     YZ       0.0000     ZZ     -27.5249
    Octopole Moments (Debye-Ang^2)
       XXX     -39.9010    XXY       8.3651    XYY      -2.8220
       YYY      -1.6685    XXZ      -0.0000    XYZ       0.0000
       YYZ      -0.0000    XZZ     -12.6878    YZZ      -3.1072
       ZZZ      -0.0000
    Hexadecapole Moments (Debye-Ang^3)
      XXXX    -352.0351   XXXY     -28.6104   XXYY    -110.8955
      XYYY      -1.4684   YYYY    -127.8982   XXXZ      -0.0000
      XXYZ       0.0000   XYYZ      -0.0000   YYYZ       0.0000
      XXZZ     -68.3449   XYZZ      -2.2341   YYZZ     -29.0331
      XZZZ      -0.0000   YZZZ       0.0000   ZZZZ     -46.2465
 -----------------------------------------------------------------
 Calculating analytic gradient of the SCF energy
 Gradient of SCF Energy
            1           2           3           4           5           6
    1   0.0011844  -0.0031482   0.0017174  -0.0000019  -0.0000019  -0.0000918
    2   0.0016705  -0.0012810  -0.0000356   0.0002459   0.0002459  -0.0002358
    3  -0.0000000   0.0000000  -0.0000000   0.0001588  -0.0001588   0.0000000
            7           8           9
    1   0.0006757  -0.0001668  -0.0001668
    2   0.0002428  -0.0004263  -0.0004263
    3   0.0000000   0.0006859  -0.0006859
 Max gradient component =       3.148E-03
 RMS gradient           =       8.778E-04
 Gradient time:  CPU 35.56 s  wall 2.23 s
 Geometry Optimization Parameters
   NAtoms,    NIC,     NZ,  NCons,   NDum,   NFix, NCnnct, MaxDiis
        9      43       0       0       0       0       0       0

 Cartesian Hessian Update
 Hessian updated using BFGS update


** GEOMETRY OPTIMIZATION IN DELOCALIZED INTERNAL COORDINATES **
   Searching for a Minimum

   Optimization Cycle:   3

                       Coordinates (Angstroms)
     ATOM                X               Y               Z
      1  S         0.7546824524    0.6989978547    0.0000000000
      2  H        -0.5187166357    0.2326698769    0.0000000000
      3  O        -2.5544406956   -0.3035266556    0.0000000000
      4  H        -3.0076291510    0.0642464959    0.7666896687
      5  H        -3.0076291510    0.0642464959   -0.7666896687
      6  C         1.5931703321   -0.9146074111    0.0000000000
      7  H         2.6744070247   -0.7131510046    0.0000000000
      8  H         1.3458550052   -1.4963057450    0.9000298904
      9  H         1.3458550052   -1.4963057450   -0.9000298904
   Point Group: cs    Number of degrees of freedom:    13


   Energy is   -514.831705146

 Hessian updated using BFGS update

 12 Hessian modes will be used to form the next step
  Hessian Eigenvalues:
     0.013965    0.078722    0.101031    0.153992    0.160566    0.181540
     0.199403    0.263619    0.285342    0.353582    0.385512    0.560133

 Minimum search - taking simple RFO step
 Searching for Lamda that Minimizes Along All modes
 Value Taken    Lamda =  -0.00025246
 Step Taken.  Stepsize is  0.128613

                             Maximum     Tolerance    Cnvgd?
         Gradient           0.001482      0.000100      NO
         Displacement       0.057312      0.000100      NO
         Energy change     -0.000202      0.000000      NO


 New Cartesian Coordinates Obtained by Inverse Iteration

 Displacement from previous Coordinates is:  0.180919
 ----------------------------------------------------------------
             Standard Nuclear Orientation (Angstroms)
    I     Atom           X                Y                Z
 ----------------------------------------------------------------
    1      S       0.7809471726     0.6955228422     0.0000000000
    2      H      -0.4928756526     0.2409593598     0.0000000000
    3      O      -2.5967556260    -0.2990659822     0.0000000000
    4      H      -3.0531804400     0.0673322143     0.7658482741
    5      H      -3.0531804400     0.0673322143    -0.7658482741
    6      C       1.6109629741    -0.9153545576     0.0000000000
    7      H       2.6933122884    -0.7186335475     0.0000000000
    8      H       1.3681619549    -1.5009141906     0.8985473990
    9      H       1.3681619549    -1.5009141906    -0.8985473990
 ----------------------------------------------------------------
 Molecular Point Group                 Cs    NOp =  2
 Largest Abelian Subgroup              Cs    NOp =  2
 Nuclear Repulsion Energy =         101.89179748 hartrees
 There are       18 alpha and       18 beta electrons
 Applying Cartesian multipole field
    Component          Value
    ---------          -----
     (2,0,0)        1.00000E-11
     (0,2,0)        2.00000E-11
     (0,0,2)       -3.00000E-11
 Nucleus-field energy     =     0.0000000049 hartrees
 Requested basis set is def2-SVPD
 There are 52 shells and 118 basis functions
 A cutoff of  1.0D-14 yielded   1334 shell pairs
 There are      6930 function pairs (      7672 Cartesian)
 Smallest overlap matrix eigenvalue = 5.08E-04
 Guess MOs from SCF MO coefficient file

 -----------------------------------------------------------------------
  General SCF calculation program by
  Eric Jon Sundstrom, Paul Horn, Yuezhi Mao, Dmitri Zuev, Alec White,
  David Stuck, Shaama M.S., Shane Yost, Joonho Lee, David Small,
  Daniel Levine, Susi Lehtola, Hugh Burton, Evgeny Epifanovsky,
  Bang C. Huynh
 -----------------------------------------------------------------------
 Exchange:     0.1670 Hartree-Fock + 1.0000 wB97X-V + LR-HF
 Correlation:  1.0000 wB97X-V
 Using Euler-Maclaurin-Lebedev (99,590) quadrature formula
 Nonlocal Correlation:  VV10 with C = 0.0100 and b = 6.00 and scale = 1.00000
 Grid used for NLC:  SG-1 standard quadrature
 A restricted SCF calculation will be
 performed using DIIS
 SCF converges when DIIS error is below 1.0e-08
 ---------------------------------------
  Cycle       Energy         DIIS error
 ---------------------------------------
    1    -514.8317892237      4.13e-04  
    2    -514.8318651622      3.06e-05  
    3    -514.8318689671      1.20e-05  
    4    -514.8318693541      7.21e-06  
    5    -514.8318694711      1.34e-06  
    6    -514.8318694756      5.59e-07  
    7    -514.8318694764      1.74e-07  
    8    -514.8318694765      2.58e-08  
    9    -514.8318694765      6.28e-09  Convergence criterion met
 ---------------------------------------
 SCF time:   CPU 122.34s  wall 8.00s 
 SCF   energy =  -514.83186948
 Total energy =  -514.83186948
 
 --------------------------------------------------------------
             Orbital Energies (a.u.) and Symmetries
 --------------------------------------------------------------
 
 Alpha MOs, Restricted
 -- Occupied --                  
-88.832 -19.253 -10.305  -8.027  -5.990  -5.985  -5.979  -1.149
  1 A'    2 A'    3 A'    4 A'    5 A'    6 A'    1 A"    7 A'                 
 -0.896  -0.751  -0.665  -0.551  -0.527  -0.523  -0.485  -0.448
  8 A'    9 A'    2 A"   10 A'    3 A"   11 A'   12 A'   13 A'                 
 -0.414  -0.325
 14 A'    4 A"                                                                 
 -- Virtual --                   
  0.061   0.084   0.107   0.111   0.131   0.144   0.149   0.165
 15 A'   16 A'   17 A'    5 A"   18 A'    6 A"   19 A'   20 A'                 
  0.176   0.193   0.197   0.215   0.229   0.236   0.247   0.250
 21 A'    7 A"   22 A'   23 A'    8 A"   24 A'    9 A"   25 A'                 
  0.280   0.287   0.292   0.293   0.305   0.344   0.356   0.384
 26 A'   10 A"   27 A'   11 A"   28 A'   29 A'   12 A"   30 A'                 
  0.397   0.404   0.414   0.424   0.440   0.442   0.447   0.456
 31 A'   13 A"   32 A'   14 A"   15 A"   33 A'   34 A'   35 A'                 
  0.458   0.472   0.483   0.496   0.501   0.506   0.523   0.540
 16 A"   36 A'   37 A'   17 A"   38 A'   18 A"   39 A'   19 A"                 
  0.559   0.568   0.580   0.631   0.644   0.670   0.718   0.744
 40 A'   20 A"   41 A'   21 A"   42 A'   43 A'   44 A'   22 A"                 
  0.763   0.851   0.907   0.907   0.917   0.955   0.961   0.975
 45 A'   46 A'   23 A"   47 A'   48 A'   24 A"   49 A'   25 A"                 
  0.993   1.045   1.065   1.101   1.119   1.162   1.184   1.205
 50 A'   51 A'   52 A'   53 A'   26 A"   54 A'   27 A"   55 A'                 
  1.233   1.248   1.367   1.472   1.511   1.615   1.633   1.660
 28 A"   56 A'   57 A'   58 A'   59 A'   60 A'   29 A"   30 A"                 
  1.701   1.772   1.776   1.858   1.896   1.898   1.962   1.977
 61 A'   62 A'   31 A"   32 A"   33 A"   63 A'   34 A"   64 A'                 
  2.003   2.037   2.100   2.131   2.153   2.181   2.344   2.401
 65 A'   35 A"   66 A'   36 A"   67 A'   68 A'   37 A"   69 A'                 
  2.459   2.491   2.606   2.612   2.896   3.138   3.139   3.147
 70 A'   71 A'   38 A"   72 A'   73 A'   39 A"   74 A'   40 A"                 
  3.164   3.305   3.736   4.122
 75 A'   76 A'   77 A'   41 A"                                                 
 
 Beta MOs, Restricted
 -- Occupied --                  
-88.832 -19.253 -10.305  -8.027  -5.990  -5.985  -5.979  -1.149
  1 A'    2 A'    3 A'    4 A'    5 A'    6 A'    1 A"    7 A'                 
 -0.896  -0.751  -0.665  -0.551  -0.527  -0.523  -0.485  -0.448
  8 A'    9 A'    2 A"   10 A'    3 A"   11 A'   12 A'   13 A'                 
 -0.414  -0.325
 14 A'    4 A"                                                                 
 -- Virtual --                   
  0.061   0.084   0.107   0.111   0.131   0.144   0.149   0.165
 15 A'   16 A'   17 A'    5 A"   18 A'    6 A"   19 A'   20 A'                 
  0.176   0.193   0.197   0.215   0.229   0.236   0.247   0.250
 21 A'    7 A"   22 A'   23 A'    8 A"   24 A'    9 A"   25 A'                 
  0.280   0.287   0.292   0.293   0.305   0.344   0.356   0.384
 26 A'   10 A"   27 A'   11 A"   28 A'   29 A'   12 A"   30 A'                 
  0.397   0.404   0.414   0.424   0.440   0.442   0.447   0.456
 31 A'   13 A"   32 A'   14 A"   15 A"   33 A'   34 A'   35 A'                 
  0.458   0.472   0.483   0.496   0.501   0.506   0.523   0.540
 16 A"   36 A'   37 A'   17 A"   38 A'   18 A"   39 A'   19 A"                 
  0.559   0.568   0.580   0.631   0.644   0.670   0.718   0.744
 40 A'   20 A"   41 A'   21 A"   42 A'   43 A'   44 A'   22 A"                 
  0.763   0.851   0.907   0.907   0.917   0.955   0.961   0.975
 45 A'   46 A'   23 A"   47 A'   48 A'   24 A"   49 A'   25 A"                 
  0.993   1.045   1.065   1.101   1.119   1.162   1.184   1.205
 50 A'   51 A'   52 A'   53 A'   26 A"   54 A'   27 A"   55 A'                 
  1.233   1.248   1.367   1.472   1.511   1.615   1.633   1.660
 28 A"   56 A'   57 A'   58 A'   59 A'   60 A'   29 A"   30 A"                 
  1.701   1.772   1.776   1.858   1.896   1.898   1.962   1.977
 61 A'   62 A'   31 A"   32 A"   33 A"   63 A'   34 A"   64 A'                 
  2.003   2.037   2.100   2.131   2.153   2.181   2.344   2.401
 65 A'   35 A"   66 A'   36 A"   67 A'   68 A'   37 A"   69 A'                 
  2.459   2.491   2.606   2.612   2.896   3.138   3.139   3.147
 70 A'   71 A'   38 A"   72 A'   73 A'   39 A"   74 A'   40 A"                 
  3.164   3.305   3.736   4.122
 75 A'   76 A'   77 A'   41 A"                                                 
 --------------------------------------------------------------
 
          Ground-State Mulliken Net Atomic Charges

     Atom                 Charge (a.u.)
  ----------------------------------------
      1 S                    -0.447165
      2 H                     0.277221
      3 O                    -0.308801
      4 H                     0.167121
      5 H                     0.167121
      6 C                     0.093859
      7 H                     0.019861
      8 H                     0.015392
      9 H                     0.015392
  ----------------------------------------
  Sum of atomic charges =     0.000000

 -----------------------------------------------------------------
                    Cartesian Multipole Moments
 -----------------------------------------------------------------
    Charge (ESU x 10^10)
                -0.0000
    Dipole Moment (Debye)
         X      -2.1879      Y      -0.5557      Z      -0.0000
       Tot       2.2574
    Quadrupole Moments (Debye-Ang)
        XX     -17.1394     XY      -5.6396     YY     -29.7331
        XZ       0.0000     YZ       0.0000     ZZ     -27.5182
    Octopole Moments (Debye-Ang^2)
       XXX     -41.3427    XXY       8.5552    XYY      -2.9300
       YYY      -1.5783    XXZ      -0.0000    XYZ      -0.0000
       YYZ      -0.0000    XZZ     -12.9814    YZZ      -3.0403
       ZZZ      -0.0000
    Hexadecapole Moments (Debye-Ang^3)
      XXXX    -360.6632   XXXY     -30.3602   XXYY    -113.5244
      XYYY      -1.6893   YYYY    -127.3557   XXXZ       0.0000
      XXYZ       0.0000   XYYZ      -0.0000   YYYZ       0.0000
      XXZZ     -70.3585   XYZZ      -2.3615   YYZZ     -28.9264
      XZZZ       0.0000   YZZZ      -0.0000   ZZZZ     -46.1456
 -----------------------------------------------------------------
 Calculating analytic gradient of the SCF energy
 Gradient of SCF Energy
            1           2           3           4           5           6
    1   0.0010079  -0.0012440   0.0015554  -0.0003619  -0.0003619  -0.0018869
    2  -0.0007717  -0.0003532  -0.0007440   0.0004802   0.0004802   0.0023393
    3  -0.0000000   0.0000000   0.0000000   0.0002923  -0.0002923   0.0000000
            7           8           9
    1   0.0007348   0.0002783   0.0002783
    2  -0.0001073  -0.0006617  -0.0006617
    3   0.0000000   0.0003387  -0.0003387
 Max gradient component =       2.339E-03
 RMS gradient           =       8.164E-04
 Gradient time:  CPU 36.03 s  wall 2.26 s
 Geometry Optimization Parameters
   NAtoms,    NIC,     NZ,  NCons,   NDum,   NFix, NCnnct, MaxDiis
        9      43       0       0       0       0       0       0

 Cartesian Hessian Update
 Hessian updated using BFGS update


** GEOMETRY OPTIMIZATION IN DELOCALIZED INTERNAL COORDINATES **
   Searching for a Minimum

   Optimization Cycle:   4

                       Coordinates (Angstroms)
     ATOM                X               Y               Z
      1  S         0.7809471726    0.6955228422    0.0000000000
      2  H        -0.4928756526    0.2409593598    0.0000000000
      3  O        -2.5967556260   -0.2990659822    0.0000000000
      4  H        -3.0531804400    0.0673322143    0.7658482741
      5  H        -3.0531804400    0.0673322143   -0.7658482741
      6  C         1.6109629741   -0.9153545576    0.0000000000
      7  H         2.6933122884   -0.7186335475    0.0000000000
      8  H         1.3681619549   -1.5009141906    0.8985473990
      9  H         1.3681619549   -1.5009141906   -0.8985473990
   Point Group: cs    Number of degrees of freedom:    13


   Energy is   -514.831869476

 Hessian updated using BFGS update

 13 Hessian modes will be used to form the next step
  Hessian Eigenvalues:
     0.008623    0.078503    0.101151    0.158011    0.160003    0.167716
     0.183086    0.199291    0.270971    0.294335    0.353782    0.375662
     0.561198

 Minimum search - taking simple RFO step
 Searching for Lamda that Minimizes Along All modes
 Value Taken    Lamda =  -0.00008927
 Step Taken.  Stepsize is  0.088602

                             Maximum     Tolerance    Cnvgd?
         Gradient           0.001826      0.000100      NO
         Displacement       0.045711      0.000100      NO
         Energy change     -0.000164      0.000000      NO


 New Cartesian Coordinates Obtained by Inverse Iteration

 Displacement from previous Coordinates is:  0.113545
 ----------------------------------------------------------------
             Standard Nuclear Orientation (Angstroms)
    I     Atom           X                Y                Z
 ----------------------------------------------------------------
    1      S       0.8024698696     0.6987096242     0.0000000000
    2      H      -0.4714667904     0.2498678789     0.0000000000
    3      O      -2.6215913922    -0.2965605972     0.0000000000
    4      H      -3.0807508392     0.0645994207     0.7661584015
    5      H      -3.0807508392     0.0645994207    -0.7661584015
    6      C       1.6224024572    -0.9172997057     0.0000000000
    7      H       2.7051375538    -0.7270212538     0.0000000000
    8      H       1.3750520833    -1.5003153129     0.8982204552
    9      H       1.3750520833    -1.5003153129    -0.8982204552
 ----------------------------------------------------------------
 Molecular Point Group                 Cs    NOp =  2
 Largest Abelian Subgroup              Cs    NOp =  2
 Nuclear Repulsion Energy =         101.49214043 hartrees
 There are       18 alpha and       18 beta electrons
 Applying Cartesian multipole field
    Component          Value
    ---------          -----
     (2,0,0)        1.00000E-11
     (0,2,0)        2.00000E-11
     (0,0,2)       -3.00000E-11
 Nucleus-field energy     =     0.0000000050 hartrees
 Requested basis set is def2-SVPD
 There are 52 shells and 118 basis functions
 A cutoff of  1.0D-14 yielded   1333 shell pairs
 There are      6921 function pairs (      7663 Cartesian)
 Smallest overlap matrix eigenvalue = 5.07E-04
 Guess MOs from SCF MO coefficient file

 -----------------------------------------------------------------------
  General SCF calculation program by
  Eric Jon Sundstrom, Paul Horn, Yuezhi Mao, Dmitri Zuev, Alec White,
  David Stuck, Shaama M.S., Shane Yost, Joonho Lee, David Small,
  Daniel Levine, Susi Lehtola, Hugh Burton, Evgeny Epifanovsky,
  Bang C. Huynh
 -----------------------------------------------------------------------
 Exchange:     0.1670 Hartree-Fock + 1.0000 wB97X-V + LR-HF
 Correlation:  1.0000 wB97X-V
 Using Euler-Maclaurin-Lebedev (99,590) quadrature formula
 Nonlocal Correlation:  VV10 with C = 0.0100 and b = 6.00 and scale = 1.00000
 Grid used for NLC:  SG-1 standard quadrature
 A restricted SCF calculation will be
 performed using DIIS
 SCF converges when DIIS error is below 1.0e-08
 ---------------------------------------
  Cycle       Energy         DIIS error
 ---------------------------------------
    1    -514.8318808279      3.04e-04  
    2    -514.8319295257      2.58e-05  
    3    -514.8319321362      8.50e-06  
    4    -514.8319323526      5.75e-06  
    5    -514.8319324107      1.20e-06  
    6    -514.8319324138      3.16e-07  
    7    -514.8319324141      1.24e-07  
    8    -514.8319324142      2.35e-08  
    9    -514.8319324142      6.56e-09  Convergence criterion met
 ---------------------------------------
 SCF time:   CPU 123.63s  wall 8.00s 
 SCF   energy =  -514.83193241
 Total energy =  -514.83193241
 
 --------------------------------------------------------------
             Orbital Energies (a.u.) and Symmetries
 --------------------------------------------------------------
 
 Alpha MOs, Restricted
 -- Occupied --                  
-88.833 -19.252 -10.306  -8.028  -5.990  -5.986  -5.980  -1.148
  1 A'    2 A'    3 A'    4 A'    5 A'    6 A'    1 A"    7 A'                 
 -0.897  -0.751  -0.665  -0.551  -0.528  -0.522  -0.485  -0.448
  8 A'    9 A'    2 A"   10 A'    3 A"   11 A'   12 A'   13 A'                 
 -0.415  -0.325
 14 A'    4 A"                                                                 
 -- Virtual --                   
  0.061   0.084   0.106   0.111   0.130   0.144   0.149   0.165
 15 A'   16 A'   17 A'    5 A"   18 A'    6 A"   19 A'   20 A'                 
  0.175   0.193   0.197   0.215   0.228   0.235   0.248   0.250
 21 A'    7 A"   22 A'   23 A'    8 A"   24 A'    9 A"   25 A'                 
  0.280   0.287   0.292   0.292   0.304   0.343   0.354   0.383
 26 A'   10 A"   27 A'   11 A"   28 A'   29 A'   12 A"   30 A'                 
  0.396   0.404   0.413   0.424   0.440   0.442   0.447   0.456
 31 A'   13 A"   32 A'   14 A"   15 A"   33 A'   34 A'   35 A'                 
  0.458   0.471   0.483   0.496   0.501   0.505   0.522   0.540
 16 A"   36 A'   37 A'   17 A"   38 A'   18 A"   39 A'   19 A"                 
  0.558   0.568   0.579   0.631   0.645   0.666   0.717   0.742
 40 A'   20 A"   41 A'   21 A"   42 A'   43 A'   44 A'   22 A"                 
  0.763   0.850   0.906   0.906   0.917   0.954   0.960   0.974
 45 A'   46 A'   23 A"   47 A'   48 A'   24 A"   49 A'   25 A"                 
  0.992   1.045   1.064   1.099   1.119   1.161   1.183   1.203
 50 A'   51 A'   52 A'   53 A'   26 A"   54 A'   27 A"   55 A'                 
  1.231   1.245   1.365   1.470   1.503   1.620   1.634   1.659
 28 A"   56 A'   57 A'   58 A'   59 A'   60 A'   29 A"   30 A"                 
  1.700   1.773   1.775   1.849   1.896   1.898   1.962   1.978
 61 A'   62 A'   31 A"   32 A"   63 A'   33 A"   34 A"   64 A'                 
  2.003   2.038   2.099   2.131   2.151   2.181   2.346   2.398
 65 A'   35 A"   66 A'   36 A"   67 A'   68 A'   37 A"   69 A'                 
  2.453   2.492   2.607   2.612   2.897   3.139   3.139   3.148
 70 A'   71 A'   38 A"   72 A'   73 A'   39 A"   74 A'   40 A"                 
  3.165   3.306   3.738   4.123
 75 A'   76 A'   77 A'   41 A"                                                 
 
 Beta MOs, Restricted
 -- Occupied --                  
-88.833 -19.252 -10.306  -8.028  -5.990  -5.986  -5.980  -1.148
  1 A'    2 A'    3 A'    4 A'    5 A'    6 A'    1 A"    7 A'                 
 -0.897  -0.751  -0.665  -0.551  -0.528  -0.522  -0.485  -0.448
  8 A'    9 A'    2 A"   10 A'    3 A"   11 A'   12 A'   13 A'                 
 -0.415  -0.325
 14 A'    4 A"                                                                 
 -- Virtual --                   
  0.061   0.084   0.106   0.111   0.130   0.144   0.149   0.165
 15 A'   16 A'   17 A'    5 A"   18 A'    6 A"   19 A'   20 A'                 
  0.175   0.193   0.197   0.215   0.228   0.235   0.248   0.250
 21 A'    7 A"   22 A'   23 A'    8 A"   24 A'    9 A"   25 A'                 
  0.280   0.287   0.292   0.292   0.304   0.343   0.354   0.383
 26 A'   10 A"   27 A'   11 A"   28 A'   29 A'   12 A"   30 A'                 
  0.396   0.404   0.413   0.424   0.440   0.442   0.447   0.456
 31 A'   13 A"   32 A'   14 A"   15 A"   33 A'   34 A'   35 A'                 
  0.458   0.471   0.483   0.496   0.501   0.505   0.522   0.540
 16 A"   36 A'   37 A'   17 A"   38 A'   18 A"   39 A'   19 A"                 
  0.558   0.568   0.579   0.631   0.645   0.666   0.717   0.742
 40 A'   20 A"   41 A'   21 A"   42 A'   43 A'   44 A'   22 A"                 
  0.763   0.850   0.906   0.906   0.917   0.954   0.960   0.974
 45 A'   46 A'   23 A"   47 A'   48 A'   24 A"   49 A'   25 A"                 
  0.992   1.045   1.064   1.099   1.119   1.161   1.183   1.203
 50 A'   51 A'   52 A'   53 A'   26 A"   54 A'   27 A"   55 A'                 
  1.231   1.245   1.365   1.470   1.503   1.620   1.634   1.659
 28 A"   56 A'   57 A'   58 A'   59 A'   60 A'   29 A"   30 A"                 
  1.700   1.773   1.775   1.849   1.896   1.898   1.962   1.978
 61 A'   62 A'   31 A"   32 A"   63 A'   33 A"   34 A"   64 A'                 
  2.003   2.038   2.099   2.131   2.151   2.181   2.346   2.398
 65 A'   35 A"   66 A'   36 A"   67 A'   68 A'   37 A"   69 A'                 
  2.453   2.492   2.607   2.612   2.897   3.139   3.139   3.148
 70 A'   71 A'   38 A"   72 A'   73 A'   39 A"   74 A'   40 A"                 
  3.165   3.306   3.738   4.123
 75 A'   76 A'   77 A'   41 A"                                                 
 --------------------------------------------------------------
 
          Ground-State Mulliken Net Atomic Charges

     Atom                 Charge (a.u.)
  ----------------------------------------
      1 S                    -0.446014
      2 H                     0.275127
      3 O                    -0.306314
      4 H                     0.165590
      5 H                     0.165590
      6 C                     0.096552
      7 H                     0.019084
      8 H                     0.015192
      9 H                     0.015192
  ----------------------------------------
  Sum of atomic charges =     0.000000

 -----------------------------------------------------------------
                    Cartesian Multipole Moments
 -----------------------------------------------------------------
    Charge (ESU x 10^10)
                -0.0000
    Dipole Moment (Debye)
         X      -2.1680      Y      -0.5631      Z      -0.0000
       Tot       2.2400
    Quadrupole Moments (Debye-Ang)
        XX     -17.0686     XY      -5.6614     YY     -29.7170
        XZ      -0.0000     YZ       0.0000     ZZ     -27.5040
    Octopole Moments (Debye-Ang^2)
       XXX     -42.5500    XXY       8.4548    XYY      -3.0868
       YYY      -1.6817    XXZ      -0.0000    XYZ       0.0000
       YYZ      -0.0000    XZZ     -13.2803    YZZ      -3.0914
       ZZZ      -0.0000
    Hexadecapole Moments (Debye-Ang^3)
      XXXX    -365.7741   XXXY     -31.3164   XXYY    -115.4387
      XYYY      -2.1412   YYYY    -127.7182   XXXZ      -0.0000
      XXYZ       0.0000   XYYZ      -0.0000   YYYZ       0.0000
      XXZZ     -71.6240   XYZZ      -2.5332   YYZZ     -28.9961
      XZZZ      -0.0000   YZZZ       0.0000   ZZZZ     -46.0807
 -----------------------------------------------------------------
 Calculating analytic gradient of the SCF energy
 Gradient of SCF Energy
            1           2           3           4           5           6
    1   0.0005649  -0.0001714   0.0005866  -0.0001244  -0.0001244  -0.0015315
    2  -0.0009160  -0.0001727  -0.0004061   0.0002523   0.0002523   0.0019379
    3   0.0000000  -0.0000000  -0.0000000   0.0001593  -0.0001593   0.0000000
            7           8           9
    1   0.0002487   0.0002758   0.0002758
    2  -0.0001120  -0.0004179  -0.0004179
    3   0.0000000   0.0000427  -0.0000427
 Max gradient component =       1.938E-03
 RMS gradient           =       5.649E-04
 Gradient time:  CPU 35.81 s  wall 2.25 s
 Geometry Optimization Parameters
   NAtoms,    NIC,     NZ,  NCons,   NDum,   NFix, NCnnct, MaxDiis
        9      43       0       0       0       0       0       0

 Cartesian Hessian Update
 Hessian updated using BFGS update


** GEOMETRY OPTIMIZATION IN DELOCALIZED INTERNAL COORDINATES **
   Searching for a Minimum

   Optimization Cycle:   5

                       Coordinates (Angstroms)
     ATOM                X               Y               Z
      1  S         0.8024698696    0.6987096242    0.0000000000
      2  H        -0.4714667904    0.2498678789    0.0000000000
      3  O        -2.6215913922   -0.2965605972    0.0000000000
      4  H        -3.0807508392    0.0645994207    0.7661584015
      5  H        -3.0807508392    0.0645994207   -0.7661584015
      6  C         1.6224024572   -0.9172997057    0.0000000000
      7  H         2.7051375538   -0.7270212538    0.0000000000
      8  H         1.3750520833   -1.5003153129    0.8982204552
      9  H         1.3750520833   -1.5003153129   -0.8982204552
   Point Group: cs    Number of degrees of freedom:    13


   Energy is   -514.831932414

 Hessian updated using BFGS update

 13 Hessian modes will be used to form the next step
  Hessian Eigenvalues:
     0.005990    0.076911    0.099840    0.151639    0.158494    0.160186
     0.183600    0.199194    0.257674    0.294462    0.353803    0.377480
     0.556277

 Minimum search - taking simple RFO step
 Searching for Lamda that Minimizes Along All modes
 Value Taken    Lamda =  -0.00004142
 Step Taken.  Stepsize is  0.066384

                             Maximum     Tolerance    Cnvgd?
         Gradient           0.000983      0.000100      NO
         Displacement       0.036297      0.000100      NO
         Energy change     -0.000063      0.000000      NO


 New Cartesian Coordinates Obtained by Inverse Iteration

 Displacement from previous Coordinates is:  0.088920
 ----------------------------------------------------------------
             Standard Nuclear Orientation (Angstroms)
    I     Atom           X                Y                Z
 ----------------------------------------------------------------
    1      S       0.8188273554     0.7017572081     0.0000000000
    2      H      -0.4560912882     0.2573461560     0.0000000000
    3      O      -2.6403318256    -0.2939186335     0.0000000000
    4      H      -3.1023842697     0.0619092044     0.7664365247
    5      H      -3.1023842697     0.0619092044    -0.7664365247
    6      C       1.6329329378    -0.9200561536     0.0000000000
    7      H       2.7159938350    -0.7345629490     0.0000000000
    8      H       1.3794958555    -1.4990599374     0.8985836315
    9      H       1.3794958555    -1.4990599374    -0.8985836315
 ----------------------------------------------------------------
 Molecular Point Group                 Cs    NOp =  2
 Largest Abelian Subgroup              Cs    NOp =  2
 Nuclear Repulsion Energy =         101.14265933 hartrees
 There are       18 alpha and       18 beta electrons
 Applying Cartesian multipole field
    Component          Value
    ---------          -----
     (2,0,0)        1.00000E-11
     (0,2,0)        2.00000E-11
     (0,0,2)       -3.00000E-11
 Nucleus-field energy     =     0.0000000051 hartrees
 Requested basis set is def2-SVPD
 There are 52 shells and 118 basis functions
 A cutoff of  1.0D-14 yielded   1332 shell pairs
 There are      6918 function pairs (      7660 Cartesian)
 Smallest overlap matrix eigenvalue = 5.07E-04
 Guess MOs from SCF MO coefficient file

 -----------------------------------------------------------------------
  General SCF calculation program by
  Eric Jon Sundstrom, Paul Horn, Yuezhi Mao, Dmitri Zuev, Alec White,
  David Stuck, Shaama M.S., Shane Yost, Joonho Lee, David Small,
  Daniel Levine, Susi Lehtola, Hugh Burton, Evgeny Epifanovsky,
  Bang C. Huynh
 -----------------------------------------------------------------------
 Exchange:     0.1670 Hartree-Fock + 1.0000 wB97X-V + LR-HF
 Correlation:  1.0000 wB97X-V
 Using Euler-Maclaurin-Lebedev (99,590) quadrature formula
 Nonlocal Correlation:  VV10 with C = 0.0100 and b = 6.00 and scale = 1.00000
 Grid used for NLC:  SG-1 standard quadrature
 A restricted SCF calculation will be
 performed using DIIS
 SCF converges when DIIS error is below 1.0e-08
 ---------------------------------------
  Cycle       Energy         DIIS error
 ---------------------------------------
    1    -514.8319195049      2.51e-04  
    2    -514.8319552662      2.21e-05  
    3    -514.8319571179      6.27e-06  
    4    -514.8319572613      4.13e-06  
    5    -514.8319572893      9.28e-07  
    6    -514.8319572913      2.21e-07  
    7    -514.8319572915      7.61e-08  
    8    -514.8319572915      2.37e-08  
    9    -514.8319572915      6.29e-09  Convergence criterion met
 ---------------------------------------
 SCF time:   CPU 122.83s  wall 8.00s 
 SCF   energy =  -514.83195729
 Total energy =  -514.83195729
 
 --------------------------------------------------------------
             Orbital Energies (a.u.) and Symmetries
 --------------------------------------------------------------
 
 Alpha MOs, Restricted
 -- Occupied --                  
-88.834 -19.252 -10.306  -8.028  -5.991  -5.987  -5.980  -1.147
  1 A'    2 A'    3 A'    4 A'    5 A'    6 A'    1 A"    7 A'                 
 -0.897  -0.752  -0.665  -0.551  -0.528  -0.522  -0.484  -0.447
  8 A'    9 A'    2 A"   10 A'    3 A"   11 A'   12 A'   13 A'                 
 -0.416  -0.326
 14 A'    4 A"                                                                 
 -- Virtual --                   
  0.061   0.083   0.106   0.111   0.130   0.144   0.149   0.164
 15 A'   16 A'   17 A'    5 A"   18 A'    6 A"   19 A'   20 A'                 
  0.175   0.192   0.197   0.215   0.228   0.235   0.248   0.249
 21 A'    7 A"   22 A'   23 A'    8 A"   24 A'    9 A"   25 A'                 
  0.280   0.287   0.292   0.292   0.304   0.342   0.353   0.383
 26 A'   10 A"   11 A"   27 A'   28 A'   29 A'   12 A"   30 A'                 
  0.396   0.404   0.413   0.424   0.440   0.441   0.446   0.455
 31 A'   13 A"   32 A'   14 A"   15 A"   33 A'   34 A'   35 A'                 
  0.458   0.471   0.482   0.497   0.500   0.504   0.521   0.539
 16 A"   36 A'   37 A'   17 A"   38 A'   18 A"   39 A'   19 A"                 
  0.557   0.568   0.578   0.631   0.645   0.663   0.717   0.740
 40 A'   20 A"   41 A'   21 A"   42 A'   43 A'   44 A'   22 A"                 
  0.763   0.848   0.905   0.905   0.916   0.953   0.959   0.973
 45 A'   46 A'   23 A"   47 A'   48 A'   24 A"   49 A'   25 A"                 
  0.992   1.044   1.063   1.099   1.120   1.160   1.182   1.202
 50 A'   51 A'   52 A'   53 A'   26 A"   54 A'   27 A"   55 A'                 
  1.230   1.243   1.362   1.467   1.497   1.623   1.635   1.659
 28 A"   56 A'   57 A'   58 A'   59 A'   60 A'   29 A"   30 A"                 
  1.699   1.772   1.774   1.842   1.895   1.899   1.961   1.977
 61 A'   62 A'   31 A"   32 A"   63 A'   33 A"   34 A"   64 A'                 
  2.001   2.038   2.099   2.132   2.149   2.181   2.347   2.395
 65 A'   35 A"   66 A'   36 A"   67 A'   68 A'   37 A"   69 A'                 
  2.449   2.492   2.607   2.612   2.899   3.138   3.139   3.149
 70 A'   71 A'   38 A"   72 A'   73 A'   74 A'   39 A"   40 A"                 
  3.164   3.306   3.739   4.124
 75 A'   76 A'   77 A'   41 A"                                                 
 
 Beta MOs, Restricted
 -- Occupied --                  
-88.834 -19.252 -10.306  -8.028  -5.991  -5.987  -5.980  -1.147
  1 A'    2 A'    3 A'    4 A'    5 A'    6 A'    1 A"    7 A'                 
 -0.897  -0.752  -0.665  -0.551  -0.528  -0.522  -0.484  -0.447
  8 A'    9 A'    2 A"   10 A'    3 A"   11 A'   12 A'   13 A'                 
 -0.416  -0.326
 14 A'    4 A"                                                                 
 -- Virtual --                   
  0.061   0.083   0.106   0.111   0.130   0.144   0.149   0.164
 15 A'   16 A'   17 A'    5 A"   18 A'    6 A"   19 A'   20 A'                 
  0.175   0.192   0.197   0.215   0.228   0.235   0.248   0.249
 21 A'    7 A"   22 A'   23 A'    8 A"   24 A'    9 A"   25 A'                 
  0.280   0.287   0.292   0.292   0.304   0.342   0.353   0.383
 26 A'   10 A"   11 A"   27 A'   28 A'   29 A'   12 A"   30 A'                 
  0.396   0.404   0.413   0.424   0.440   0.441   0.446   0.455
 31 A'   13 A"   32 A'   14 A"   15 A"   33 A'   34 A'   35 A'                 
  0.458   0.471   0.482   0.497   0.500   0.504   0.521   0.539
 16 A"   36 A'   37 A'   17 A"   38 A'   18 A"   39 A'   19 A"                 
  0.557   0.568   0.578   0.631   0.645   0.663   0.717   0.740
 40 A'   20 A"   41 A'   21 A"   42 A'   43 A'   44 A'   22 A"                 
  0.763   0.848   0.905   0.905   0.916   0.953   0.959   0.973
 45 A'   46 A'   23 A"   47 A'   48 A'   24 A"   49 A'   25 A"                 
  0.992   1.044   1.063   1.099   1.120   1.160   1.182   1.202
 50 A'   51 A'   52 A'   53 A'   26 A"   54 A'   27 A"   55 A'                 
  1.230   1.243   1.362   1.467   1.497   1.623   1.635   1.659
 28 A"   56 A'   57 A'   58 A'   59 A'   60 A'   29 A"   30 A"                 
  1.699   1.772   1.774   1.842   1.895   1.899   1.961   1.977
 61 A'   62 A'   31 A"   32 A"   63 A'   33 A"   34 A"   64 A'                 
  2.001   2.038   2.099   2.132   2.149   2.181   2.347   2.395
 65 A'   35 A"   66 A'   36 A"   67 A'   68 A'   37 A"   69 A'                 
  2.449   2.492   2.607   2.612   2.899   3.138   3.139   3.149
 70 A'   71 A'   38 A"   72 A'   73 A'   74 A'   39 A"   40 A"                 
  3.164   3.306   3.739   4.124
 75 A'   76 A'   77 A'   41 A"                                                 
 --------------------------------------------------------------
 
          Ground-State Mulliken Net Atomic Charges

     Atom                 Charge (a.u.)
  ----------------------------------------
      1 S                    -0.446372
      2 H                     0.273792
      3 O                    -0.304021
      4 H                     0.164367
      5 H                     0.164367
      6 C                     0.097581
      7 H                     0.018618
      8 H                     0.015834
      9 H                     0.015834
  ----------------------------------------
  Sum of atomic charges =     0.000000

 -----------------------------------------------------------------
                    Cartesian Multipole Moments
 -----------------------------------------------------------------
    Charge (ESU x 10^10)
                -0.0000
    Dipole Moment (Debye)
         X      -2.1592      Y      -0.5765      Z       0.0000
       Tot       2.2348
    Quadrupole Moments (Debye-Ang)
        XX     -16.9869     XY      -5.6669     YY     -29.7145
        XZ       0.0000     YZ      -0.0000     ZZ     -27.4948
    Octopole Moments (Debye-Ang^2)
       XXX     -43.5962    XXY       8.3242    XYY      -3.2310
       YYY      -1.7774    XXZ       0.0000    XYZ      -0.0000
       YYZ       0.0000    XZZ     -13.5244    YZZ      -3.1468
       ZZZ       0.0000
    Hexadecapole Moments (Debye-Ang^3)
      XXXX    -369.3409   XXXY     -31.8674   XXYY    -116.9914
      XYYY      -2.3908   YYYY    -128.1774   XXXZ      -0.0000
      XXYZ      -0.0000   XYYZ       0.0000   YYYZ      -0.0000
      XXZZ     -72.6267   XYZZ      -2.6402   YYZZ     -29.0760
      XZZZ      -0.0000   YZZZ      -0.0000   ZZZZ     -46.0478
 -----------------------------------------------------------------
 Calculating analytic gradient of the SCF energy
 Gradient of SCF Energy
            1           2           3           4           5           6
    1   0.0000216   0.0001722  -0.0001685   0.0000946   0.0000946  -0.0004006
    2  -0.0003267  -0.0000621  -0.0000870   0.0000557   0.0000557   0.0006346
    3   0.0000000  -0.0000000  -0.0000000   0.0000262  -0.0000262  -0.0000000
            7           8           9
    1   0.0000025   0.0000918   0.0000918
[...]
MEM_TOTAL  8000
MEM_STATIC  2000
BASIS_LIN_DEP_THRESH  6
THRESH  14
SCF_CONVERGENCE  8
FD_MAT_VEC_PROD  FALSE
XC_GRID  000099000590
NL_GRID  1
MAX_SCF_CYCLES  200
GEOM_OPT_MAX_CYCLES  200
GEOM_OPT_DRIVER  OPTIMIZE
GEOM_OPT_TOL_GRADIENT  100
GEOM_OPT_TOL_DISPLACEMENT  100
GEOM_OPT_TOL_ENERGY  10
SCF_GUESS  READ
$end
--------------------------------------------------------------
 ----------------------------------------------------------------
             Standard Nuclear Orientation (Angstroms)
    I     Atom           X                Y                Z
 ----------------------------------------------------------------
    1      S       1.1194381157     0.9243432069     0.0000000000
    2      H      -0.2286643731     0.9317093328     0.0000000000
    3      O      -2.1748212350    -0.3539209401     0.0000000000
    4      H      -2.7570932988    -0.3674335376     0.7667351559
    5      H      -2.7570932988    -0.3674335376    -0.7667351559
    6      C       1.3099584751    -0.8812652113     0.0000000000
    7      H       2.3884748770    -1.0906234693     0.0000000000
    8      H       0.8626774621    -1.3295558408     0.8972046590
    9      H       0.8626774621    -1.3295558408    -0.8972046590
 ----------------------------------------------------------------
 Nuclear Repulsion Energy =         103.70675283 hartrees
 There are       18 alpha and       18 beta electrons
 Requested basis set is def2-SVPD
 There are 52 shells and 118 basis functions

 Total QAlloc Memory Limit   8000 MB
 Mega-Array Size      1956 MB
 MEM_STATIC part      2000 MB


                       Distance Matrix (Angstroms)
             S (  1)   H (  2)   O (  3)   H (  4)   H (  5)   C (  6)
   H (  2)  1.348123
   O (  3)  3.533568  2.332460
   H (  4)  4.157411  2.944250  0.962864
   H (  5)  4.157411  2.944250  0.962864  1.533470
   C (  6)  1.815632  2.377864  3.524455  4.170470  4.170470
   H (  7)  2.381291  3.307453  4.622381  5.252405  5.252405  1.098648
   H (  8)  2.439460  2.666331  3.314097  3.747725  4.098428  1.098181
   H (  9)  2.439460  2.666331  3.314097  4.098428  3.747725  1.098181
             H (  7)   H (  8)
   H (  8)  1.786091
   H (  9)  1.786091  1.794409
 
 A cutoff of  1.0D-14 yielded   1352 shell pairs
 There are      7018 function pairs (      7768 Cartesian)
 Smallest overlap matrix eigenvalue = 5.07E-04
 Guess MOs from SCF MO coefficient file

 -----------------------------------------------------------------------
  General SCF calculation program by
  Eric Jon Sundstrom, Paul Horn, Yuezhi Mao, Dmitri Zuev, Alec White,
  David Stuck, Shaama M.S., Shane Yost, Joonho Lee, David Small,
  Daniel Levine, Susi Lehtola, Hugh Burton, Evgeny Epifanovsky,
  Bang C. Huynh
 -----------------------------------------------------------------------
 Exchange:     0.1670 Hartree-Fock + 1.0000 wB97X-V + LR-HF
 Correlation:  1.0000 wB97X-V
 Using Euler-Maclaurin-Lebedev (99,590) quadrature formula
 Nonlocal Correlation:  VV10 with C = 0.0100 and b = 6.00 and scale = 1.00000
 Grid used for NLC:  SG-1 standard quadrature
 using 16 threads for integral computing
 -------------------------------------------------------
 OpenMP Integral computing Module                
 Release: version 1.0, May 2013, Q-Chem Inc. Pittsburgh 
 -------------------------------------------------------
 A restricted SCF calculation will be
 performed using DIIS
 SCF converges when DIIS error is below 1.0e-08
 ---------------------------------------
  Cycle       Energy         DIIS error
 ---------------------------------------
    1    -514.8321760084      3.46e-10  
    2    -514.8321760084      1.37e-10  Convergence criterion met
 ---------------------------------------
 SCF time:   CPU 29.00s  wall 2.00s 
 SCF   energy =  -514.83217601
 Total energy =  -514.83217601
 
 --------------------------------------------------------------
 
                    Orbital Energies (a.u.)
 --------------------------------------------------------------
 
 Alpha MOs
 -- Occupied --
-88.8317 -19.2525 -10.3024  -8.0266  -5.9890  -5.9849  -5.9782  -1.1481
 -0.8943  -0.7485  -0.6660  -0.5517  -0.5246  -0.5175  -0.4803  -0.4487
 -0.4159  -0.3234
 -- Virtual --
  0.0570   0.0886   0.1067   0.1109   0.1298   0.1419   0.1515   0.1608
  0.1768   0.1908   0.2068   0.2150   0.2260   0.2291   0.2690   0.2713
  0.2820   0.2837   0.3039   0.3157   0.3278   0.3349   0.3468   0.3879
  0.3999   0.4128   0.4204   0.4370   0.4476   0.4486   0.4515   0.4607
  0.4617   0.4743   0.4947   0.4984   0.5166   0.5201   0.5318   0.5461
  0.5532   0.5930   0.5968   0.6009   0.6257   0.6619   0.7218   0.7431
  0.7697   0.8531   0.9112   0.9174   0.9257   0.9467   0.9683   0.9888
  1.0219   1.0441   1.0646   1.0873   1.1625   1.1675   1.1858   1.1903
  1.2308   1.2712   1.3774   1.4584   1.5012   1.5655   1.6569   1.6805
  1.6866   1.7525   1.7819   1.8308   1.8803   1.9145   1.9680   1.9702
  1.9958   2.0632   2.1331   2.1420   2.1594   2.2239   2.3691   2.4060
  2.4580   2.5015   2.6114   2.6233   2.9059   3.1263   3.1443   3.1517
  3.1948   3.3186   3.7393   4.1261
 --------------------------------------------------------------
 
          Ground-State Mulliken Net Atomic Charges

     Atom                 Charge (a.u.)
  ----------------------------------------
      1 S                    -0.401816
      2 H                     0.242137
      3 O                    -0.294437
      4 H                     0.158969
      5 H                     0.158969
      6 C                     0.133687
      7 H                    -0.013599
      8 H                     0.008045
      9 H                     0.008045
  ----------------------------------------
  Sum of atomic charges =     0.000000

 -----------------------------------------------------------------
                    Cartesian Multipole Moments
 -----------------------------------------------------------------
    Charge (ESU x 10^10)
                 0.0000
    Dipole Moment (Debye)
         X      -3.0840      Y      -1.6620      Z       0.0000
       Tot       3.5034
    Quadrupole Moments (Debye-Ang)
        XX     -18.4042     XY      -2.2743     YY     -29.6268
        XZ      -0.0000     YZ       0.0000     ZZ     -27.5108
    Octopole Moments (Debye-Ang^2)
       XXX     -58.8972    XXY     -11.2535    XYY     -10.0976
       YYY      -8.9060    XXZ       0.0000    XYZ       0.0000
       YYZ      -0.0000    XZZ     -18.4164    YZZ      -7.3441
       ZZZ       0.0000
    Hexadecapole Moments (Debye-Ang^3)
      XXXX    -303.0565   XXXY     -22.3946   XXYY    -104.3828
      XYYY     -33.2345   YYYY    -159.1046   XXXZ      -0.0000
      XXYZ       0.0000   XYYZ       0.0000   YYYZ       0.0000
      XXZZ     -64.2735   XYZZ      -9.9861   YYZZ     -35.7571
      XZZZ       0.0000   YZZZ       0.0000   ZZZZ     -46.1564
 -----------------------------------------------------------------
 Calculating MO derivatives via CPSCF
    1     0    30    0.0308998  
    2     0    30    0.0113166  
    3     0    30    0.0019410  
    4     0    30    0.0002911  
    5     0    30    0.0000318  
    6    25     5    0.0000054  
    7    30     0    0.0000006  Converged
 Polarizability Matrix (a.u.)
            1           2           3
    1 -46.3532093   0.7507196  -0.0000000
    2   0.7507196 -49.0151937  -0.0000000
    3  -0.0000000  -0.0000000 -41.9150354
 Calculating analytic Hessian of the SCF energy
 
 Direct stationary perturbation theory relativistic correction:
 
 rels  =       0.635968338612
 relv  =      -2.276026225513
 rel2e =       0.000000000000
 E_rel =      -1.640057886901
 
 **********************************************************************
 **                                                                  **
 **                       VIBRATIONAL ANALYSIS                       **
 **                       --------------------                       **
 **                                                                  **
 **        VIBRATIONAL FREQUENCIES (CM**-1) AND NORMAL MODES         **
 **     FORCE CONSTANTS (mDYN/ANGSTROM) AND REDUCED MASSES (AMU)     **
 **                  INFRARED INTENSITIES (KM/MOL)                   **
 **                                                                  **
 **********************************************************************
 

 Mode:                 1                      2                      3
 Frequency:       -38.73                  40.86                  66.20
 Force Cnst:      0.0009                 0.0031                 0.0028
 Red. Mass:       1.0234                 3.1807                 1.0748
 IR Active:          YES                    YES                    YES
 IR Intens:       16.604                  1.178                 28.189
 Raman Active:       YES                    YES                    YES
               X      Y      Z        X      Y      Z        X      Y      Z
 S          0.000  0.000 -0.012   -0.062 -0.050 -0.000   -0.000 -0.000 -0.006
 H          0.000  0.000  0.360   -0.066 -0.339  0.000   -0.000 -0.000  0.021
 O          0.000 -0.000  0.024   -0.184  0.113  0.000   -0.000  0.000 -0.056
 H         -0.390 -0.197 -0.276   -0.182  0.100  0.001    0.379 -0.463  0.224
 H          0.390  0.197 -0.276   -0.182  0.100 -0.001   -0.379  0.463  0.224
 C         -0.000  0.000  0.014    0.340 -0.007 -0.000    0.000 -0.000  0.041
 H         -0.000 -0.000 -0.321    0.387  0.232 -0.000    0.000  0.000 -0.195
 H          0.287  0.042  0.178    0.446 -0.110  0.002    0.206  0.037  0.162
 H         -0.287 -0.042  0.178    0.446 -0.110 -0.002   -0.206 -0.037  0.162
 TransDip  -0.000  0.000 -0.131    0.029 -0.019 -0.000    0.000 -0.000  0.170

 Mode:                 4                      5                      6
 Frequency:       106.53                 119.93                 122.01
 Force Cnst:      0.0485                 0.0088                 0.0101
 Red. Mass:       7.2570                 1.0429                 1.1461
 IR Active:          YES                    YES                    YES
 IR Intens:        9.404                  1.740                216.949
 Raman Active:       YES                    YES                    YES
               X      Y      Z        X      Y      Z        X      Y      Z
 S         -0.263 -0.082 -0.000   -0.000 -0.000  0.021   -0.022 -0.002 -0.000
 H         -0.259 -0.289  0.000   -0.000 -0.000 -0.066   -0.022 -0.035  0.000
 O          0.446  0.243  0.000   -0.000 -0.000 -0.038    0.034 -0.084  0.000
 H          0.458 -0.100  0.003    0.143  0.485  0.079    0.013  0.703 -0.002
 H          0.458 -0.100 -0.003   -0.143 -0.485  0.079    0.013  0.703  0.002
 C          0.028 -0.052  0.000    0.000 -0.000 -0.005    0.009  0.001  0.000
 H          0.061  0.121 -0.000    0.000  0.000 -0.421    0.012  0.018  0.000
 H          0.103 -0.127  0.000    0.342  0.008  0.170    0.013 -0.005 -0.001
 H          0.103 -0.127 -0.000   -0.342 -0.008  0.170    0.013 -0.005  0.001
 TransDip  -0.020 -0.096 -0.000    0.000  0.000  0.042   -0.007  0.472 -0.000

 Mode:                 7                      8                      9
 Frequency:       355.00                 748.87                 819.32
 Force Cnst:      0.0771                 1.1629                 0.4655
 Red. Mass:       1.0387                 3.5195                 1.1769
 IR Active:          YES                    YES                    YES
 IR Intens:       30.446                  2.784                  3.959
 Raman Active:       YES                    YES                    YES
               X      Y      Z        X      Y      Z        X      Y      Z
 S          0.000 -0.000 -0.021    0.020 -0.182  0.000   -0.006  0.025  0.000
 H         -0.000  0.000  0.926    0.027  0.451 -0.000   -0.000  0.733 -0.000
 O          0.000 -0.000 -0.033    0.001 -0.001  0.000    0.001 -0.002 -0.000
 H          0.151  0.140  0.084   -0.002  0.006 -0.002   -0.004  0.006 -0.003
 H         -0.151 -0.140  0.084   -0.002  0.006  0.002   -0.004  0.006  0.003
 C         -0.000  0.000  0.003   -0.080  0.358 -0.000   -0.029 -0.112 -0.000
 H         -0.000  0.000  0.148   -0.006  0.728  0.000    0.077  0.406 -0.000
 H         -0.094  0.026 -0.032    0.151  0.161  0.016    0.225 -0.295  0.036
 H          0.094 -0.026 -0.032    0.151  0.161 -0.016    0.225 -0.295 -0.036
 TransDip   0.000  0.000  0.177    0.015  0.051  0.000    0.051  0.038 -0.000

 Mode:                10                     11                     12
 Frequency:       971.19                1101.88                1347.54
 Force Cnst:      0.6602                 0.8790                 1.2506
 Red. Mass:       1.1880                 1.2288                 1.1689
 IR Active:          YES                    YES                    YES
 IR Intens:        4.477                  4.438                  2.684
 Raman Active:       YES                    YES                    YES
               X      Y      Z        X      Y      Z        X      Y      Z
 S         -0.000  0.000  0.026   -0.032 -0.025 -0.000    0.002 -0.003 -0.000
 H         -0.000  0.000 -0.041   -0.021  0.708  0.000    0.003 -0.056  0.000
 O          0.000  0.000 -0.000    0.001 -0.001  0.000    0.000  0.001  0.000
 H          0.001  0.001  0.000   -0.005  0.003 -0.004   -0.001 -0.002 -0.001
 H         -0.001 -0.001  0.000   -0.005  0.003  0.004   -0.001 -0.002  0.001
 C          0.000 -0.000 -0.121    0.124  0.006  0.000    0.014 -0.120 -0.000
 H         -0.000 -0.000  0.263    0.025 -0.490 -0.000    0.140  0.589  0.000
 H          0.007  0.646  0.200   -0.232  0.251 -0.060   -0.193  0.489  0.179
 H         -0.007 -0.646  0.200   -0.232  0.251  0.060   -0.193  0.489 -0.179
 TransDip  -0.000 -0.000  0.068   -0.048 -0.047 -0.000   -0.003 -0.052  0.000

 Mode:                13                     14                     15
 Frequency:      1447.27                1458.13                1593.53
 Force Cnst:      1.2930                 1.3092                 1.6207
 Red. Mass:       1.0478                 1.0451                 1.0832
 IR Active:          YES                    YES                    YES
 IR Intens:        5.916                 10.092                 81.177
 Raman Active:       YES                    YES                    YES
               X      Y      Z        X      Y      Z        X      Y      Z
 S         -0.000 -0.000 -0.004   -0.005 -0.002 -0.000    0.000 -0.000 -0.000
 H         -0.000  0.000 -0.012   -0.004  0.047 -0.000   -0.004  0.012 -0.000
 O         -0.000  0.000  0.001    0.001 -0.000 -0.000   -0.071 -0.002 -0.000
 H         -0.003  0.001 -0.002   -0.004  0.001 -0.003    0.561  0.016  0.427
 H          0.003 -0.001 -0.002   -0.004  0.001  0.003    0.561  0.016 -0.427
 C         -0.000  0.000 -0.060   -0.056 -0.014  0.000    0.000 -0.000  0.000
 H         -0.000 -0.000  0.724   -0.107 -0.355 -0.000   -0.000 -0.003 -0.000
 H          0.423 -0.234  0.054    0.461  0.263  0.383    0.003  0.003  0.003
 H         -0.423  0.234  0.054    0.461  0.263 -0.383    0.003  0.003 -0.003
 TransDip   0.000  0.000  0.078    0.098 -0.028 -0.000    0.289  0.006 -0.000

 Mode:                16                     17                     18
 Frequency:      2752.26                3075.18                3179.01
 Force Cnst:      4.6324                 5.7494                 6.5857
 Red. Mass:       1.0379                 1.0319                 1.1060
 IR Active:          YES                    YES                    YES
 IR Intens:       28.223                 21.949                  6.165
 Raman Active:       YES                    YES                    YES
               X      Y      Z        X      Y      Z        X      Y      Z
 S         -0.031  0.001  0.000   -0.000 -0.000  0.000   -0.000  0.000 -0.000
 H          0.999 -0.011  0.000    0.010  0.000  0.000    0.012 -0.005 -0.000
 O         -0.001 -0.000 -0.000   -0.000 -0.000 -0.000    0.000  0.000 -0.000
 H          0.003  0.000 -0.000    0.000  0.000  0.000   -0.000 -0.000 -0.000
 H          0.003  0.000  0.000    0.000  0.000 -0.000   -0.000 -0.000  0.000
 C          0.001 -0.000 -0.000   -0.008  0.046 -0.000   -0.093 -0.015  0.000
 H         -0.014  0.004  0.000    0.577 -0.103  0.000    0.791 -0.150  0.000
 H          0.002 -0.001 -0.001   -0.237 -0.218  0.472    0.159  0.162 -0.346
 H          0.002 -0.001  0.001   -0.237 -0.218 -0.472    0.159  0.162  0.346
 TransDip   0.163  0.049 -0.000   -0.027  0.148 -0.000   -0.071 -0.036  0.000

 Mode:                19                     20                     21
 Frequency:      3183.18                3869.20                3976.58
 Force Cnst:      6.6202                 9.2172                10.0887
 Red. Mass:       1.1089                 1.0450                 1.0828
 IR Active:          YES                    YES                    YES
 IR Intens:        4.934                 16.956                 87.237
 Raman Active:       YES                    YES                    YES
               X      Y      Z        X      Y      Z        X      Y      Z
 S         -0.000  0.000  0.000   -0.000 -0.000 -0.000    0.000 -0.000 -0.000
 H          0.000 -0.000  0.001    0.003  0.000  0.000   -0.000  0.000 -0.000
 O          0.000 -0.000  0.000    0.050  0.001 -0.000   -0.000  0.000 -0.071
 H         -0.000  0.000 -0.000   -0.395 -0.010  0.585   -0.427 -0.010  0.562
 H          0.000 -0.000 -0.000   -0.395 -0.010 -0.585    0.427  0.010  0.562
 C         -0.000 -0.000 -0.096   -0.000  0.000 -0.000   -0.000 -0.000  0.000
 H          0.000 -0.000 -0.014   -0.000  0.000  0.000    0.000 -0.000  0.000
 H         -0.296 -0.279  0.574    0.000  0.000  0.000    0.000 -0.000 -0.000
 H          0.296  0.279  0.574    0.000  0.000 -0.000   -0.000  0.000 -0.000
 TransDip  -0.000 -0.000 -0.071   -0.132 -0.005  0.000    0.000  0.000  0.299

 STANDARD THERMODYNAMIC QUANTITIES AT   298.15 K  AND     1.00 ATM

   This Molecule has  1 Imaginary Frequencies
   Zero point vibrational energy:       43.364 kcal/mol

   Atom    1 Element S  Has Mass   31.97207
   Atom    2 Element H  Has Mass    1.00783
   Atom    3 Element O  Has Mass   15.99491
   Atom    4 Element H  Has Mass    1.00783
   Atom    5 Element H  Has Mass    1.00783
   Atom    6 Element C  Has Mass   12.00000
   Atom    7 Element H  Has Mass    1.00783
   Atom    8 Element H  Has Mass    1.00783
   Atom    9 Element H  Has Mass    1.00783
   Molecular Mass:    66.013960 amu
   Principal axes and moments of inertia in amu*Bohr^2:
                             1           2           3
    Eigenvalues --      143.23406   586.04059   709.22291
          X              -0.97629    -0.21648     0.00000
          Y              -0.21648     0.97629     0.00000
          Z              -0.00000     0.00000     1.00000
   Rotational Symmetry Number is   1
   The Molecule is an Asymmetric Top
   Translational Enthalpy:        0.889 kcal/mol
   Rotational Enthalpy:           0.889 kcal/mol
   Vibrational Enthalpy:         46.114 kcal/mol
   gas constant (RT):             0.592 kcal/mol
   Translational Entropy:        38.480  cal/mol.K
   Rotational Entropy:           25.590  cal/mol.K
   Vibrational Entropy:          20.796  cal/mol.K

   Total Enthalpy:               48.484 kcal/mol
   Total Entropy:                84.867  cal/mol.K

   Quasi-RRHO corrections using alpha = 4, and omega = 100 cm^-1
   QRRHO-Vib. Enthalpy:          45.233 kcal/mol
   QRRHO-Vib. Entropy:           18.021  cal/mol.K
   QRRHO-Total Enthalpy:         47.603 kcal/mol
   QRRHO-Total Entropy:          82.091  cal/mol.K
 Total job time:  234.48s(wall), 3735.82s(cpu) 
 Wed Nov 13 02:08:22 2024

        *************************************************************
        *                                                           *
        *  Thank you very much for using Q-Chem.  Have a nice day.  *
        *                                                           *
        *************************************************************


