
Running Job 1 of 2 tBuOH_water_optfreq_wB97X-V_svpd.in
qchem tBuOH_water_optfreq_wB97X-V_svpd.in_2807419.0 /data/scratch/tBuOH_water_optfreq_wB97X-V_svpd20241113015055/ 1
/opt/qchem/6.2.0/exe/qcprog.exe_s tBuOH_water_optfreq_wB97X-V_svpd.in_2807419.0 /data/scratch/tBuOH_water_optfreq_wB97X-V_svpd20241113015055/
                  Welcome to Q-Chem
     A Quantum Leap Into The Future Of Chemistry


 Q-Chem 6.2, Q-Chem, Inc., Pleasanton, CA (2024)

 E. Epifanovsky,  A. T. B. Gilbert,  Xintian Feng,  Joonho Lee,  Yuezhi Mao,  
 N. Mardirossian,  P. Pokhilko,  A. White,  M. Wormit,  M. P. Coons,  
 A. L. Dempwolff,  Zhengting Gan,  D. Hait,  P. R. Horn,  L. D. Jacobson,  
 I. Kaliman,  J. Kussmann,  A. W. Lange,  Ka Un Lao,  D. S. Levine,  Jie Liu,  
 S. C. McKenzie,  A. F. Morrison,  K. D. Nanda,  F. Plasser,  D. R. Rehn,  
 M. L. Vidal,  Zhi-Qiang You,  Ying Zhu,  Huseyin Aksu,  B. Alam,  
 B. Albrecht,  A. Aldossary,  E. Alguire,  J. H. Andersen,  
 J. E. Arias-Martinez,  V. Athavale,  D. Barton,  K. Begam,  A. Behn,  
 N. Bellonzi,  Y. A. Bernard,  E. J. Berquist,  H. Burton,  A. Carreras,  
 K. Carter-Fenk,  Mathew Chow,  Romit Chakraborty,  Chandrima Chakravarty,  
 Junhan Chen,  A. D. Chien,  K. D. Closser,  V. Cofer-Shabica,  L. Cunha,  
 S. Dasgupta,  Jia Deng,  Joseph Dickinson,  M. de Wergifosse,  
 M. Diedenhofen,  Hainam Do,  Wenjie Dou,  S. Ehlert,  Po-Tung Fang,  
 S. Fatehi,  Qingguo Feng,  Jonathan Fetherolf,  T. Friedhoff,  
 Thomas Froitzheim,  Sarai Folkestad,  B. Ganoe,  J. Gayvert,  Qinghui Ge,  
 G. Gidofalvi,  M. Gimferrer,  M. Goldey,  Montgomery Gray,  J. Gomes,  
 C. Gonzalez-Espinoza,  S. Gulania,  A. Gunina,  J. A. Gyamfi,  
 M. W. D. Hanson-Heine,  P. H. P. Harbach,  A. W. Hauser,  M. F. Herbst,  
 M. Hernandez Vera,  M. Hodecker,  Z. C. Holden,  S. Houck,  Xunkun Huang,  
 Kerwin Hui,  B. C. Huynh,  K. Ikeda,  M. Ivanov,  Nayanthara K. Jayadev,  
 Hyunjun Ji,  Zuxin Jin,  Hanjie Jiang,  Subrata Jana,  B. Kaduk,  
 S. Kaehler,  R. Kang,  K. Khistyaev,  Jaehoon Kim,  Yongbin Kim,  
 P. Klunzinger,  Z. Koczor-Benda,  Joong Hoon Koh,  D. Kosenkov,  
 Saikiran Kotaru,  L. Koulias,  T. Kowalczyk,  C. M. Krauter,  K. Kue,  
 A. Kunitsa,  T. Kus,  A. Landau,  K. V. Lawler,  D. Lefrancois,  S. Lehtola,  
 Rain Li,  Shaozhi Li,  Tao E. Li,  Yi-Pei Li,  Jiashu Liang,  M. Liebenthal,  
 Hung-Hsuan Lin,  You-Sheng Lin,  Fenglai Liu,  Kuan-Yu Liu,  Xiao Liu,  
 M. Loipersberger,  A. Luenser,  C. Malbon,  Aniket Mandal,  Manisha,  
 A. Manjanath,  P. Manohar,  E. Mansoor,  S. F. Manzer,  Shan-Ping Mao,  
 A. V. Marenich,  T. Markovich,  S. Mason,  F. Matz,  S. A. Maurer,  
 Samuel May,  Alexandra McIsaac,  P. F. McLaughlin,  M. F. S. J. Menger,  
 J.-M. Mewes,  S. A. Mewes,  P. Morgante,  Mohammad Mostafanejad,  
 Madhubani Mukherjee,  J. W. Mullinax,  Quyen Nguyen,  Avik Kumar Ojha,  
 K. J. Oosterbaan,  Eno Paenurk,  Xiaoliang Pan,  G. Paran,  V. Parravicini,  
 Alexander C. Paul,  Suranjan K. Paul,  F. Pavosevic,  Zheng Pei,  S. Prager,  
 E. I. Proynov,  E. Ramos,  B. Rana,  A. E. Rask,  A. Rettig,  R. M. Richard,  
 F. Rob,  E. Rossomme,  T. Scheele,  M. Scheurer,  M. Schneider,  
 P. E. Schneider,  Tim K. Schramm,  N. Sergueev,  S. M. Sharada,  
 Hengyuan Shen,  W. Skomorowski,  D. W. Small,  C. J. Stein,  
 Alistair J. Sterling,  Yingli Su,  Yu-Chuan Su,  E. J. Sundstrom,  
 J. Talbot,  Zhen Tao,  J. Thirman,  Hung-Yi Tsai,  T. Tsuchimochi,  
 N. M. Tubman,  C. Utku,  S. P. Veccham,  O. Vydrov,  Rahel Weiss,  
 J. Wenzel,  Jonathan Wong,  J. Witte,  H. Wu,  Yanze Wu,  A. Yamada,  
 Chou-Hsun Yang,  Kun Yao,  S. Yeganeh,  S. R. Yost,  Qi Yu,  A. Zech,  
 F. Zeller,  Chongxiao Zhao,  Igor Ying Zhang,  Xing Zhang,  Yu Zhang,  
 D. Zuev,  A. Aspuru-Guzik,  A. T. Bell,  N. A. Besley,  K. B. Bravaya,  
 B. R. Brooks,  D. Casanova,  Jeng-Da Chai,  Hsing-Ta Chen,  S. Coriani,  
 C. J. Cramer,  A. E. DePrince, III,  R. A. DiStasio Jr.,  A. Dreuw,  
 B. D. Dunietz,  T. R. Furlani,  W. A. Goddard III,  S. Grimme,  
 S. Hammes-Schiffer,  T. Head-Gordon,  W. J. Hehre,  Chao-Ping Hsu,  
 T.-C. Jagau,  Yousung Jung,  A. Klamt,  Jing Kong,  D. S. Lambrecht,  
 Xiangyuan Li,  WanZhen Liang,  N. J. Mayhall,  C. W. McCurdy,  J. B. Neaton,  
 T. Neudecker,  C. Ochsenfeld,  J. A. Parkhill,  R. Peverati,  
 V. A. Rassolov,  Haisheng Ren,  Yihan Shao,  L. V. Slipchenko,  
 R. P. Steele,  J. E. Subotnik,  A. J. W. Thom,  A. Tkatchenko,  
 D. G. Truhlar,  T. Van Voorhis,  Fan Wang,  T. A. Wesolowski,  K. B. Whaley,  
 H. L. Woodcock III,  P. M. Zimmerman,  S. Faraji,  P. M. W. Gill,  
 M. Head-Gordon,  J. M. Herbert,  A. I. Krylov

 Contributors to earlier versions of Q-Chem not listed above: 
 R. D. Adamson,  B. Austin,  R. Baer,  J. Baker,  G. J. O. Beran,  
 K. Brandhorst,  S. T. Brown,  E. F. C. Byrd,  Arup K. Chakraborty,  
 G. K. L. Chan,  Chun-Min Chang,  Yunqing Chen,  C.-L. Cheng,  
 Siu Hung Chien,  D. M. Chipman,  D. L. Crittenden,  H. Dachsel,  
 R. J. Doerksen,  A. D. Dutoi,  R. G. Edgar,  J. Fosso-Tande,  
 L. Fusti-Molnar,  D. Ghosh,  A. Ghysels,  A. Golubeva-Zadorozhnaya,  
 J. Gonthier,  M. S. Gordon,  S. R. Gwaltney,  G. Hawkins,  J. E. Herr,  
 A. Heyden,  S. Hirata,  E. G. Hohenstein,  G. Kedziora,  F. J. Keil,  
 C. Kelley,  Jihan Kim,  R. A. King,  R. Z. Khaliullin,  P. P. Korambath,  
 W. Kurlancheek,  A. Laurent,  A. M. Lee,  M. S. Lee,  S. V. Levchenko,  
 Ching Yeh Lin,  D. Liotard,  E. Livshits,  R. C. Lochan,  I. Lotan,  
 L. A. Martinez-Martinez,  P. E. Maslen,  N. Nair,  D. P. O'Neill,  
 D. Neuhauser,  E. Neuscamman,  C. M. Oana,  R. Olivares-Amaya,  R. Olson,  
 T. M. Perrine,  B. Peters,  P. A. Pieniazek,  A. Prociuk,  Y. M. Rhee,  
 J. Ritchie,  M. A. Rohrdanz,  E. Rosta,  N. J. Russ,  H. F. Schaefer III,  
 M. W. Schmidt,  N. E. Schultz,  S. Sharma,  N. Shenvi,  C. D. Sherrill,  
 A. C. Simmonett,  A. Sodt,  T. Stein,  D. Stuck,  K. S. Thanthiriwatte,  
 V. Vanovschi,  L. Vogt,  Tao Wang,  A. Warshel,  M. A. Watson,  
 C. F. Williams,  Q. Wu,  X. Xu,  Jun Yang,  W. Zhang,  Yan Zhao

   Please cite Q-Chem as follows:
  "Software for the frontiers of quantum chemistry:
   An overview of developments in the Q-Chem 5 package"
   J. Chem. Phys. 155, 084801 (2021)
   https://doi.org/10.1063/5.0055522 (open access)

 Q-Chem 6.2.0 for Intel X86 EM64T Linux

 Parts of Q-Chem use Armadillo 9.900.5 (Nocturnal Misbehaviour).
 http://arma.sourceforge.net/

 Q-Chem begins on Wed Nov 13 01:50:55 2024  

 Host: 
0

     Scratch files written to /data/scratch/tBuOH_water_optfreq_wB97X-V_svpd20241113015055//
 May224 |scratch|qcdevops|jenkins|workspace|build_RNUM -1
 Processing $rem in /opt/qchem/6.2.0/config/preferences:
 Processing $rem in /home/ymao/.qchemrc:

 Checking the input file for inconsistencies... 	...done.

--------------------------------------------------------------
User input:
--------------------------------------------------------------
$molecule
0 1
O    -1.52402   -0.56029   -0.02264
H    -0.72105   -0.62962   0.55777
O    0.73679    -1.37171   1.40921
H    0.20085    -1.60508   2.20850
H    1.08326    -2.23923   1.08059
C    -1.95717   0.77894    -0.00569
C    -3.20908   0.88643    -0.88827
H    -4.01263   0.22320    -0.50157
H    -3.59077   1.93037    -0.90712
H    -2.97567   0.57643    -1.92965
C    -2.31156   1.19697    1.43352
H    -3.10435   0.53522    1.84373
H    -1.41946   1.12070    2.09160
H    -2.67650   2.24657    1.45900
C    -0.85478   1.69261    -0.57201
H    -0.59415   1.38700    -1.60808
H    -1.19224   2.75152    -0.58803
H    0.06220    1.62813    0.05160
$end

$rem
JOBTYPE  OPT
METHOD  WB97X-V
BASIS  DEF2-SVPD
SYMMETRY  FALSE
SYM_IGNORE  TRUE
MEM_TOTAL  8000
MEM_STATIC  2000
BASIS_LIN_DEP_THRESH  6
THRESH  14
SCF_CONVERGENCE  8
FD_MAT_VEC_PROD  FALSE
XC_GRID  000099000590
NL_GRID  1
MAX_SCF_CYCLES  200
GEOM_OPT_MAX_CYCLES  200
GEOM_OPT_DRIVER  OPTIMIZE
GEOM_OPT_TOL_GRADIENT  100
GEOM_OPT_TOL_DISPLACEMENT  100
GEOM_OPT_TOL_ENERGY  10
$end

--------------------------------------------------------------
 ----------------------------------------------------------------
             Standard Nuclear Orientation (Angstroms)
    I     Atom           X                Y                Z
 ----------------------------------------------------------------
    1      O      -1.5240200000    -0.5602900000    -0.0226400000
    2      H      -0.7210500000    -0.6296200000     0.5577700000
    3      O       0.7367900000    -1.3717100000     1.4092100000
    4      H       0.2008500000    -1.6050800000     2.2085000000
    5      H       1.0832600000    -2.2392300000     1.0805900000
    6      C      -1.9571700000     0.7789400000    -0.0056900000
    7      C      -3.2090800000     0.8864300000    -0.8882700000
    8      H      -4.0126300000     0.2232000000    -0.5015700000
    9      H      -3.5907700000     1.9303700000    -0.9071200000
   10      H      -2.9756700000     0.5764300000    -1.9296500000
   11      C      -2.3115600000     1.1969700000     1.4335200000
   12      H      -3.1043500000     0.5352200000     1.8437300000
   13      H      -1.4194600000     1.1207000000     2.0916000000
   14      H      -2.6765000000     2.2465700000     1.4590000000
   15      C      -0.8547800000     1.6926100000    -0.5720100000
   16      H      -0.5941500000     1.3870000000    -1.6080800000
   17      H      -1.1922400000     2.7515200000    -0.5880300000
   18      H       0.0622000000     1.6281300000     0.0516000000
 ----------------------------------------------------------------
 Nuclear Repulsion Energy =         265.63450860 hartrees
 There are       26 alpha and       26 beta electrons
 Requested basis set is def2-SVPD
 There are 98 shells and 222 basis functions

 Total QAlloc Memory Limit   8000 MB
 Mega-Array Size      1956 MB
 MEM_STATIC part      2000 MB

 A cutoff of  1.0D-14 yielded   4737 shell pairs
 There are     24405 function pairs (     27153 Cartesian)
 Smallest overlap matrix eigenvalue = 1.45E-05

 Scale SEOQF with 1.000000e-01/1.000000e-01/1.000000e-01

 Standard Electronic Orientation quadrupole field applied
 Nucleus-field energy     =     0.0000000069 hartrees
 Guess from superposition of atomic densities
 Warning:  Energy on first SCF cycle will be non-variational
 SAD guess density has 52.000000 electrons

 -----------------------------------------------------------------------
  General SCF calculation program by
  Eric Jon Sundstrom, Paul Horn, Yuezhi Mao, Dmitri Zuev, Alec White,
  David Stuck, Shaama M.S., Shane Yost, Joonho Lee, David Small,
  Daniel Levine, Susi Lehtola, Hugh Burton, Evgeny Epifanovsky,
  Bang C. Huynh
 -----------------------------------------------------------------------
 Exchange:     0.1670 Hartree-Fock + 1.0000 wB97X-V + LR-HF
 Correlation:  1.0000 wB97X-V
 Using Euler-Maclaurin-Lebedev (99,590) quadrature formula
 Nonlocal Correlation:  VV10 with C = 0.0100 and b = 6.00 and scale = 1.00000
 Grid used for NLC:  SG-1 standard quadrature
 using 16 threads for integral computing
 -------------------------------------------------------
 OpenMP Integral computing Module                
 Release: version 1.0, May 2013, Q-Chem Inc. Pittsburgh 
 -------------------------------------------------------
 A restricted SCF calculation will be
 performed using DIIS
 SCF converges when DIIS error is below 1.0e-08
 ---------------------------------------
  Cycle       Energy         DIIS error
 ---------------------------------------
    1    -310.7575942564      3.63e-02  
    2    -309.6873738577      4.71e-03  
    3    -309.7258048764      4.31e-03  
    4    -309.8076981782      4.28e-04  
    5    -309.8085905129      1.61e-04  
    6    -309.8087499081      3.62e-05  
    7    -309.8087574156      1.45e-05  
    8    -309.8087584414      3.60e-06  
    9    -309.8087585476      6.36e-07  
   10    -309.8087585513      2.82e-07  
   11    -309.8087585520      4.48e-08  
   12    -309.8087585521      1.23e-08  
   13    -309.8087585521      3.10e-09  Convergence criterion met
 ---------------------------------------
 SCF time:   CPU 823.52s  wall 51.00s 
 SCF   energy =  -309.80875855
 Total energy =  -309.80875855
 
 --------------------------------------------------------------
 
                    Orbital Energies (a.u.)
 --------------------------------------------------------------
 
 Alpha MOs
 -- Occupied --
-19.2676 -19.2013 -10.3289 -10.2717 -10.2673 -10.2662  -1.1512  -1.1218
 -0.8992  -0.8015  -0.7983  -0.6758  -0.6628  -0.5923  -0.5552  -0.5503
 -0.5352  -0.5079  -0.4957  -0.4806  -0.4585  -0.4528  -0.4495  -0.4424
 -0.4015  -0.3596
 -- Virtual --
  0.0572   0.0949   0.1129   0.1265   0.1379   0.1429   0.1519   0.1622
  0.1677   0.1831   0.1849   0.1943   0.2078   0.2166   0.2260   0.2305
  0.2342   0.2430   0.2448   0.2601   0.2664   0.2686   0.2824   0.2933
  0.3004   0.3268   0.3375   0.3425   0.3552   0.3585   0.3723   0.3774
  0.3789   0.3809   0.3950   0.3990   0.4141   0.4203   0.4253   0.4302
  0.4359   0.4373   0.4460   0.4518   0.4596   0.4603   0.4722   0.4736
  0.4769   0.4826   0.4906   0.4948   0.5012   0.5066   0.5136   0.5314
  0.5360   0.5473   0.5483   0.5573   0.5585   0.5760   0.5801   0.5816
  0.5845   0.5996   0.6046   0.6107   0.6220   0.6382   0.6476   0.6533
  0.6643   0.6703   0.6797   0.6845   0.7003   0.7177   0.7245   0.7259
  0.7354   0.7458   0.7652   0.7676   0.8051   0.8259   0.8363   0.8620
  0.8791   0.8807   0.8974   0.9303   0.9766   0.9771   0.9883   0.9971
  1.0150   1.0382   1.0546   1.0759   1.0831   1.1112   1.1247   1.1401
  1.1458   1.1564   1.1593   1.1692   1.2360   1.2851   1.3153   1.3666
  1.3742   1.3765   1.3864   1.4303   1.4363   1.4649   1.4808   1.5056
  1.5208   1.5333   1.5846   1.6516   1.6689   1.6848   1.7192   1.7466
  1.7513   1.7967   1.8120   1.8338   1.8508   1.8723   1.8854   1.9158
  1.9266   1.9476   1.9660   1.9752   2.0001   2.0116   2.0215   2.0563
  2.0755   2.0807   2.0922   2.0948   2.1186   2.1349   2.1558   2.1604
  2.1729   2.2115   2.2144   2.2448   2.2688   2.2935   2.3283   2.3620
  2.3932   2.4191   2.4475   2.4590   2.4637   2.4754   2.5186   2.5722
  2.6365   2.6426   2.6583   2.6744   2.7098   2.7208   2.7871   2.7894
  2.8002   2.9787   3.0890   3.1077   3.1115   3.1245   3.1513   3.1822
  3.2042   3.2125   3.2362   3.2527   3.2704   3.2797   3.3742   3.4061
  3.6869   3.7455   4.0683   4.1939
 --------------------------------------------------------------
 
          Ground-State Mulliken Net Atomic Charges

     Atom                 Charge (a.u.)
  ----------------------------------------
      1 O                     0.004918
      2 H                     0.183971
      3 O                    -0.414473
      4 H                     0.248190
      5 H                     0.202619
      6 C                    -3.958917
      7 C                     0.896476
      8 H                     0.098665
      9 H                     0.206314
     10 H                     0.111161
     11 C                     0.916982
     12 H                     0.042904
     13 H                     0.044399
     14 H                     0.195382
     15 C                     0.910381
     16 H                     0.045032
     17 H                     0.203894
     18 H                     0.062103
  ----------------------------------------
  Sum of atomic charges =     0.000000

 -----------------------------------------------------------------
                    Cartesian Multipole Moments
 -----------------------------------------------------------------
    Charge (ESU x 10^10)
                -0.0000
    Dipole Moment (Debye)
         X       1.0309      Y      -0.9620      Z       1.7930
       Tot       2.2810
    Quadrupole Moments (Debye-Ang)
        XX     -42.9791     XY      -4.8394     YY     -34.8556
        XZ      -1.2562     YZ      -4.5598     ZZ     -37.3403
    Octopole Moments (Debye-Ang^2)
       XXX     191.6040    XXY     -17.0724    XYY      69.5321
       YYY     -76.0947    XXZ     -10.7292    XYZ       0.5312
       YYZ       0.3362    XZZ      61.8147    YZZ     -29.9532
       ZZZ     -20.7792
    Hexadecapole Moments (Debye-Ang^3)
      XXXX   -1065.1182   XXXY     188.2066   XXYY    -239.9738
      XYYY     164.4634   YYYY    -382.9929   XXXZ     -28.7533
      XXYZ      13.4966   XYYZ      -1.9032   YYYZ      21.6971
      XXZZ    -238.9837   XYZZ      70.2175   YYZZ    -111.9833
      XZZZ     -21.6979   YZZZ      21.4004   ZZZZ    -290.1903
 -----------------------------------------------------------------
 Calculating analytic gradient of the SCF energy
 Gradient of SCF Energy
            1           2           3           4           5           6
    1  -0.0146149   0.0150286   0.0036510  -0.0147413   0.0094726   0.0059024
    2   0.0062135   0.0029534   0.0263496  -0.0040519  -0.0221341  -0.0152771
    3  -0.0121596   0.0178054  -0.0155950   0.0181652  -0.0070400   0.0011734
            7           8           9          10          11          12
    1   0.0035616  -0.0050762  -0.0028585   0.0012523   0.0011973  -0.0048204
    2   0.0042331  -0.0039675   0.0068500  -0.0018186  -0.0011454  -0.0039320
    3   0.0033710   0.0023725  -0.0003367  -0.0066496  -0.0035261   0.0030739
           13          14          15          16          17          18
    1   0.0041204  -0.0024918  -0.0031147   0.0019945  -0.0027886   0.0043254
    2  -0.0012380   0.0061213  -0.0028390  -0.0014924   0.0057444  -0.0005693
    3   0.0029678  -0.0011389   0.0010975  -0.0068294   0.0000313   0.0032173
 Max gradient component =       2.635E-02
 RMS gradient           =       8.428E-03
 Gradient time:  CPU 155.59 s  wall 9.74 s
 Geometry Optimization Parameters
   NAtoms,    NIC,     NZ,  NCons,   NDum,   NFix, NCnnct, MaxDiis
       18     115       0       0       0       0       0       0


** GEOMETRY OPTIMIZATION IN DELOCALIZED INTERNAL COORDINATES **
   Searching for a Minimum

   Optimization Cycle:   1

                       Coordinates (Angstroms)
     ATOM                X               Y               Z
      1  O        -1.5240200000   -0.5602900000   -0.0226400000
      2  H        -0.7210500000   -0.6296200000    0.5577700000
      3  O         0.7367900000   -1.3717100000    1.4092100000
      4  H         0.2008500000   -1.6050800000    2.2085000000
      5  H         1.0832600000   -2.2392300000    1.0805900000
      6  C        -1.9571700000    0.7789400000   -0.0056900000
      7  C        -3.2090800000    0.8864300000   -0.8882700000
      8  H        -4.0126300000    0.2232000000   -0.5015700000
      9  H        -3.5907700000    1.9303700000   -0.9071200000
     10  H        -2.9756700000    0.5764300000   -1.9296500000
     11  C        -2.3115600000    1.1969700000    1.4335200000
     12  H        -3.1043500000    0.5352200000    1.8437300000
     13  H        -1.4194600000    1.1207000000    2.0916000000
     14  H        -2.6765000000    2.2465700000    1.4590000000
     15  C        -0.8547800000    1.6926100000   -0.5720100000
     16  H        -0.5941500000    1.3870000000   -1.6080800000
     17  H        -1.1922400000    2.7515200000   -0.5880300000
     18  H         0.0622000000    1.6281300000    0.0516000000
   Point Group: c1    Number of degrees of freedom:    48


   Energy is   -309.808758552


 Attempting to generate delocalized internal coordinates
 Initial Hessian constructed with Jon Baker's OPTIMIZE code

 48 Hessian modes will be used to form the next step
  Hessian Eigenvalues:
     0.002000    0.003885    0.003923    0.004482    0.009195    0.014635
     0.048051    0.056072    0.056112    0.056318    0.056387    0.056501
     0.056504    0.057040    0.059129    0.063374    0.086853    0.160000
     0.160000    0.160000    0.160000    0.160000    0.160000    0.160000
     0.160000    0.160000    0.160000    0.160000    0.160000    0.160000
     0.161306    0.161394    0.285170    0.285427    0.289207    0.324218
     0.324390    0.324420    0.324573    0.324597    0.324732    0.324750
     0.324763    0.325144    0.443779    0.489044    0.494418    0.494479

 Minimum search - taking simple RFO step
 Searching for Lamda that Minimizes Along All modes
 Value Taken    Lamda =  -0.00593272
 Step Taken.  Stepsize is  0.224040

                             Maximum     Tolerance    Cnvgd?
         Gradient           0.026284      0.000100      NO
         Displacement       0.119303      0.000100      NO
         Energy change     *********      0.000000      NO


 New Cartesian Coordinates Obtained by Inverse Iteration

 Displacement from previous Coordinates is:  0.455568
 ----------------------------------------------------------------
             Standard Nuclear Orientation (Angstroms)
    I     Atom           X                Y                Z
 ----------------------------------------------------------------
    1      O      -1.5403685227    -0.5474633829     0.0002072141
    2      H      -0.7562858346    -0.6454797190     0.5688240464
    3      O       0.7253764902    -1.4001721312     1.4311705763
    4      H       0.2026174008    -1.7562737062     2.1603331656
    5      H       1.1301119688    -2.1746544556     1.0246741100
    6      C      -1.9644567438     0.8061875341     0.0048628746
    7      C      -3.2035213673     0.8650188611    -0.8890585232
    8      H      -3.9907150531     0.2043127706    -0.4958767661
    9      H      -3.5972569963     1.8906777309    -0.9395470159
   10      H      -2.9540636852     0.5331306780    -1.9078249754
   11      C      -2.3202053966     1.2413167282     1.4353534242
   12      H      -3.1021261466     0.5847566233     1.8449378788
   13      H      -1.4350431540     1.1793873271     2.0904348623
   14      H      -2.6855123656     2.2796836829     1.4585919943
   15      C      -0.8542559971     1.7051566993    -0.5612783884
   16      H      -0.5911188853     1.3795760965    -1.5780803479
   17      H      -1.1743198906     2.7582872104    -0.6000515459
   18      H       0.0508141789     1.6447114522     0.0647874162
 ----------------------------------------------------------------
 Nuclear Repulsion Energy =         265.90881630 hartrees
 There are       26 alpha and       26 beta electrons
 Applying Cartesian multipole field
    Component          Value
    ---------          -----
     (2,0,0)        1.00000E-11
     (0,2,0)        2.00000E-11
     (0,0,2)       -3.00000E-11
 Nucleus-field energy     =     0.0000000070 hartrees
 Requested basis set is def2-SVPD
 There are 98 shells and 222 basis functions
 A cutoff of  1.0D-14 yielded   4739 shell pairs
 There are     24415 function pairs (     27163 Cartesian)
 Smallest overlap matrix eigenvalue = 1.46E-05
 Guess MOs from SCF MO coefficient file

 -----------------------------------------------------------------------
  General SCF calculation program by
  Eric Jon Sundstrom, Paul Horn, Yuezhi Mao, Dmitri Zuev, Alec White,
  David Stuck, Shaama M.S., Shane Yost, Joonho Lee, David Small,
  Daniel Levine, Susi Lehtola, Hugh Burton, Evgeny Epifanovsky,
  Bang C. Huynh
 -----------------------------------------------------------------------
 Exchange:     0.1670 Hartree-Fock + 1.0000 wB97X-V + LR-HF
 Correlation:  1.0000 wB97X-V
 Using Euler-Maclaurin-Lebedev (99,590) quadrature formula
 Nonlocal Correlation:  VV10 with C = 0.0100 and b = 6.00 and scale = 1.00000
 Grid used for NLC:  SG-1 standard quadrature
 A restricted SCF calculation will be
 performed using DIIS
 SCF converges when DIIS error is below 1.0e-08
 ---------------------------------------
  Cycle       Energy         DIIS error
 ---------------------------------------
    1    -309.8049517370      1.04e-03  
    2    -309.8118216691      1.95e-04  
    3    -309.8121239639      1.11e-04  
    4    -309.8121844105      3.07e-05  
    5    -309.8121905447      8.80e-06  
    6    -309.8121911108      2.20e-06  
    7    -309.8121911565      5.26e-07  
    8    -309.8121911594      2.74e-07  
    9    -309.8121911599      6.45e-08  
   10    -309.8121911599      2.28e-08  
   11    -309.8121911599      6.31e-09  Convergence criterion met
 ---------------------------------------
 SCF time:   CPU 679.01s  wall 45.00s 
 SCF   energy =  -309.81219116
 Total energy =  -309.81219116
 
 --------------------------------------------------------------
 
                    Orbital Energies (a.u.)
 --------------------------------------------------------------
 
 Alpha MOs
 -- Occupied --
-19.2629 -19.1996 -10.3284 -10.2678 -10.2644 -10.2618  -1.1599  -1.1212
 -0.9019  -0.8039  -0.8019  -0.6793  -0.6704  -0.5939  -0.5554  -0.5522
 -0.5365  -0.5097  -0.4960  -0.4808  -0.4604  -0.4539  -0.4490  -0.4419
 -0.4041  -0.3613
 -- Virtual --
  0.0605   0.0955   0.1144   0.1266   0.1386   0.1426   0.1528   0.1639
  0.1686   0.1848   0.1879   0.1959   0.2072   0.2182   0.2269   0.2327
  0.2342   0.2446   0.2459   0.2627   0.2682   0.2713   0.2834   0.2944
  0.3044   0.3294   0.3391   0.3434   0.3537   0.3604   0.3720   0.3776
  0.3805   0.3838   0.3957   0.4020   0.4184   0.4209   0.4283   0.4319
  0.4386   0.4403   0.4462   0.4537   0.4603   0.4625   0.4738   0.4745
  0.4807   0.4851   0.4900   0.4988   0.5032   0.5125   0.5146   0.5284
  0.5350   0.5477   0.5482   0.5576   0.5600   0.5762   0.5808   0.5837
  0.5859   0.5994   0.6070   0.6109   0.6253   0.6370   0.6495   0.6544
  0.6651   0.6693   0.6772   0.6862   0.6990   0.7189   0.7275   0.7297
  0.7374   0.7423   0.7641   0.7681   0.8078   0.8271   0.8379   0.8622
  0.8809   0.8821   0.8928   0.9285   0.9747   0.9816   0.9929   0.9969
  1.0204   1.0424   1.0592   1.0812   1.0880   1.1105   1.1300   1.1430
  1.1500   1.1576   1.1628   1.1746   1.2376   1.2907   1.3201   1.3604
  1.3715   1.3724   1.3824   1.4329   1.4372   1.4613   1.4768   1.5043
  1.5216   1.5336   1.6058   1.6574   1.6712   1.6871   1.7196   1.7506
  1.7527   1.8023   1.8156   1.8357   1.8565   1.8730   1.8896   1.9143
  1.9227   1.9537   1.9711   1.9803   2.0086   2.0196   2.0392   2.0603
  2.0841   2.0897   2.1002   2.1074   2.1268   2.1469   2.1621   2.1754
  2.1841   2.2132   2.2239   2.2539   2.2877   2.3061   2.3606   2.3762
  2.4105   2.4195   2.4520   2.4850   2.4898   2.4943   2.5295   2.5855
  2.6548   2.6594   2.6738   2.6898   2.7204   2.7341   2.8039   2.8077
  2.8184   2.9947   3.0984   3.1236   3.1326   3.1441   3.1530   3.1974
  3.2218   3.2311   3.2533   3.2653   3.2873   3.3155   3.3794   3.4092
  3.7194   3.7544   4.1125   4.2216
 --------------------------------------------------------------
 
          Ground-State Mulliken Net Atomic Charges

     Atom                 Charge (a.u.)
  ----------------------------------------
      1 O                     0.011048
      2 H                     0.154596
      3 O                    -0.373399
      4 H                     0.228611
      5 H                     0.175823
      6 C                    -4.078533
      7 C                     0.974363
      8 H                     0.084609
      9 H                     0.183602
     10 H                     0.093830
     11 C                     1.016447
     12 H                     0.029276
     13 H                     0.047770
     14 H                     0.170607
     15 C                     1.013688
     16 H                     0.028964
     17 H                     0.181784
     18 H                     0.056914
  ----------------------------------------
  Sum of atomic charges =     0.000000

 -----------------------------------------------------------------
                    Cartesian Multipole Moments
 -----------------------------------------------------------------
    Charge (ESU x 10^10)
                 0.0000
    Dipole Moment (Debye)
         X       1.1044      Y      -0.9978      Z       1.5627
       Tot       2.1581
    Quadrupole Moments (Debye-Ang)
        XX     -42.5898     XY      -4.8514     YY     -34.4594
        XZ      -1.3745     YZ      -4.4277     ZZ     -37.8326
    Octopole Moments (Debye-Ang^2)
       XXX     192.2082    XXY     -17.5061    XYY      69.1770
       YYY     -76.2860    XXZ     -10.9028    XYZ       0.7041
       YYZ       0.4791    XZZ      61.2736    YZZ     -29.8892
       ZZZ     -23.1207
    Hexadecapole Moments (Debye-Ang^3)
      XXXX   -1061.8665   XXXY     188.4254   XXYY    -240.8085
      XYYY     167.4627   YYYY    -390.8796   XXXZ     -26.3526
      XXYZ      13.3804   XYYZ      -2.3413   YYYZ      19.2401
      XXZZ    -238.0569   XYZZ      71.0416   YYZZ    -111.0626
      XZZZ     -21.4409   YZZZ      20.9611   ZZZZ    -293.4460
 -----------------------------------------------------------------
 Calculating analytic gradient of the SCF energy
 Gradient of SCF Energy
            1           2           3           4           5           6
    1  -0.0015787   0.0017626   0.0003944  -0.0015152  -0.0001049   0.0019634
    2   0.0018046   0.0007476   0.0020515  -0.0003364  -0.0012384  -0.0062679
    3  -0.0034260   0.0067658  -0.0049744  -0.0006536   0.0019970   0.0000191
            7           8           9          10          11          12
    1   0.0000670  -0.0004088   0.0003344  -0.0003794  -0.0007100   0.0001441
    2   0.0007507   0.0000312  -0.0004386   0.0000683   0.0015347   0.0000812
    3   0.0002629  -0.0002923   0.0001666  -0.0001921   0.0000264  -0.0000363
           13          14          15          16          17          18
    1   0.0000134  -0.0000129  -0.0003130  -0.0000537   0.0001760   0.0002211
    2  -0.0000912  -0.0001825   0.0013161   0.0000662   0.0000009   0.0001019
    3   0.0002936   0.0002003  -0.0002147   0.0003017  -0.0001304  -0.0001136
 Max gradient component =       6.766E-03
 RMS gradient           =       1.689E-03
 Gradient time:  CPU 148.55 s  wall 10.07 s
 Geometry Optimization Parameters
   NAtoms,    NIC,     NZ,  NCons,   NDum,   NFix, NCnnct, MaxDiis
       18     115       0       0       0       0       0       0

 Cartesian Hessian Update
 Hessian updated using BFGS update


** GEOMETRY OPTIMIZATION IN DELOCALIZED INTERNAL COORDINATES **
   Searching for a Minimum

   Optimization Cycle:   2

                       Coordinates (Angstroms)
     ATOM                X               Y               Z
      1  O        -1.5403685227   -0.5474633829    0.0002072141
      2  H        -0.7562858346   -0.6454797190    0.5688240464
      3  O         0.7253764902   -1.4001721312    1.4311705763
      4  H         0.2026174008   -1.7562737062    2.1603331656
      5  H         1.1301119688   -2.1746544556    1.0246741100
      6  C        -1.9644567438    0.8061875341    0.0048628746
      7  C        -3.2035213673    0.8650188611   -0.8890585232
      8  H        -3.9907150531    0.2043127706   -0.4958767661
      9  H        -3.5972569963    1.8906777309   -0.9395470159
     10  H        -2.9540636852    0.5331306780   -1.9078249754
     11  C        -2.3202053966    1.2413167282    1.4353534242
     12  H        -3.1021261466    0.5847566233    1.8449378788
     13  H        -1.4350431540    1.1793873271    2.0904348623
     14  H        -2.6855123656    2.2796836829    1.4585919943
     15  C        -0.8542559971    1.7051566993   -0.5612783884
     16  H        -0.5911188853    1.3795760965   -1.5780803479
     17  H        -1.1743198906    2.7582872104   -0.6000515459
     18  H         0.0508141789    1.6447114522    0.0647874162
   Point Group: c1    Number of degrees of freedom:    48


   Energy is   -309.812191160

 Hessian updated using BFGS update

 37 Hessian modes will be used to form the next step
  Hessian Eigenvalues:
     0.001987    0.003885    0.003923    0.004482    0.009151    0.014635
     0.046178    0.053796    0.056074    0.056117    0.056319    0.056501
     0.056534    0.057045    0.059531    0.063375    0.085724    0.146941
     0.160605    0.161315    0.165641    0.284009    0.285312    0.289203
     0.324034    0.324391    0.324450    0.324577    0.324621    0.324708
     0.324754    0.325092    0.336853    0.433078    0.485011    0.494413
     0.524979

 Minimum search - taking simple RFO step
 Searching for Lamda that Minimizes Along All modes
 Value Taken    Lamda =  -0.00102821
 Calculated Step too Large.  Step scaled by  0.790632
 Step Taken.  Stepsize is  0.300000

                             Maximum     Tolerance    Cnvgd?
         Gradient           0.003144      0.000100      NO
         Displacement       0.221596      0.000100      NO
         Energy change     -0.003433      0.000000      NO


 New Cartesian Coordinates Obtained by Inverse Iteration

 Displacement from previous Coordinates is:  0.563229
 ----------------------------------------------------------------
             Standard Nuclear Orientation (Angstroms)
    I     Atom           X                Y                Z
 ----------------------------------------------------------------
    1      O      -1.5722159136    -0.5500049485     0.0229724183
    2      H      -0.7959648685    -0.6550180124     0.5950248048
    3      O       0.7118828678    -1.3906943504     1.4837863001
    4      H       0.1993420015    -1.9262623783     2.0984958908
    5      H       1.2450712984    -2.0170557758     0.9854693558
    6      C      -1.9779611602     0.8136490033     0.0105201699
    7      C      -3.2098810642     0.8721573237    -0.8914356137
    8      H      -4.0026161595     0.2243026728    -0.4909923868
    9      H      -3.5949699762     1.8998020853    -0.9625531917
   10      H      -2.9544948840     0.5199470770    -1.9008786186
   11      C      -2.3301271869     1.2625332008     1.4356642114
   12      H      -3.1204461381     0.6193699670     1.8488719842
   13      H      -1.4463206084     1.1954189829     2.0905888807
   14      H      -2.6815452375     2.3052970113     1.4497921973
   15      C      -0.8479960188     1.6826124209    -0.5584336199
   16      H      -0.5850844704     1.3407323743    -1.5695180222
   17      H      -1.1471657790     2.7406375799    -0.6098585807
   18      H       0.0501632974     1.6107357662     0.0749438204
 ----------------------------------------------------------------
 Nuclear Repulsion Energy =         265.72352940 hartrees
 There are       26 alpha and       26 beta electrons
 Applying Cartesian multipole field
    Component          Value
    ---------          -----
     (2,0,0)        1.00000E-11
     (0,2,0)        2.00000E-11
     (0,0,2)       -3.00000E-11
 Nucleus-field energy     =     0.0000000070 hartrees
 Requested basis set is def2-SVPD
 There are 98 shells and 222 basis functions
 A cutoff of  1.0D-14 yielded   4736 shell pairs
 There are     24408 function pairs (     27156 Cartesian)
 Smallest overlap matrix eigenvalue = 1.48E-05
 Guess MOs from SCF MO coefficient file

 -----------------------------------------------------------------------
  General SCF calculation program by
  Eric Jon Sundstrom, Paul Horn, Yuezhi Mao, Dmitri Zuev, Alec White,
  David Stuck, Shaama M.S., Shane Yost, Joonho Lee, David Small,
  Daniel Levine, Susi Lehtola, Hugh Burton, Evgeny Epifanovsky,
  Bang C. Huynh
 -----------------------------------------------------------------------
 Exchange:     0.1670 Hartree-Fock + 1.0000 wB97X-V + LR-HF
 Correlation:  1.0000 wB97X-V
 Using Euler-Maclaurin-Lebedev (99,590) quadrature formula
 Nonlocal Correlation:  VV10 with C = 0.0100 and b = 6.00 and scale = 1.00000
 Grid used for NLC:  SG-1 standard quadrature
 A restricted SCF calculation will be
 performed using DIIS
 SCF converges when DIIS error is below 1.0e-08
 ---------------------------------------
  Cycle       Energy         DIIS error
 ---------------------------------------
    1    -309.7994503444      1.38e-03  
    2    -309.8122105596      2.41e-04  
    3    -309.8128152856      6.15e-05  
    4    -309.8128380028      4.13e-05  
    5    -309.8128470461      7.20e-06  
    6    -309.8128475012      1.77e-06  
    7    -309.8128475276      1.06e-06  
    8    -309.8128475345      1.67e-07  
    9    -309.8128475349      7.02e-08  
   10    -309.8128475349      1.72e-08  
   11    -309.8128475349      4.23e-09  Convergence criterion met
 ---------------------------------------
 SCF time:   CPU 662.34s  wall 45.00s 
 SCF   energy =  -309.81284753
 Total energy =  -309.81284753
 
 --------------------------------------------------------------
 
                    Orbital Energies (a.u.)
 --------------------------------------------------------------
 
 Alpha MOs
 -- Occupied --
-19.2619 -19.1992 -10.3282 -10.2666 -10.2644 -10.2615  -1.1594  -1.1205
 -0.9021  -0.8037  -0.8025  -0.6792  -0.6717  -0.5934  -0.5552  -0.5522
 -0.5349  -0.5094  -0.4957  -0.4805  -0.4604  -0.4539  -0.4482  -0.4417
 -0.4046  -0.3615
 -- Virtual --
  0.0612   0.0958   0.1149   0.1268   0.1378   0.1425   0.1532   0.1650
  0.1687   0.1845   0.1907   0.1977   0.2049   0.2191   0.2263   0.2323
  0.2328   0.2450   0.2461   0.2642   0.2698   0.2718   0.2841   0.2930
  0.3099   0.3285   0.3391   0.3408   0.3501   0.3605   0.3707   0.3774
  0.3817   0.3845   0.3966   0.4041   0.4142   0.4218   0.4283   0.4345
  0.4389   0.4420   0.4458   0.4528   0.4590   0.4642   0.4741   0.4750
  0.4825   0.4850   0.4894   0.4997   0.5025   0.5142   0.5184   0.5228
  0.5337   0.5472   0.5489   0.5579   0.5596   0.5719   0.5830   0.5848
  0.5869   0.5991   0.6069   0.6102   0.6284   0.6378   0.6535   0.6559
  0.6655   0.6680   0.6767   0.6858   0.7023   0.7193   0.7295   0.7313
  0.7324   0.7426   0.7639   0.7694   0.8014   0.8254   0.8350   0.8645
  0.8829   0.8833   0.8894   0.9261   0.9704   0.9826   0.9922   0.9971
  1.0200   1.0437   1.0589   1.0797   1.0890   1.1049   1.1269   1.1433
  1.1496   1.1543   1.1654   1.1899   1.2358   1.2910   1.3241   1.3584
  1.3694   1.3702   1.3816   1.4335   1.4373   1.4595   1.4798   1.5026
  1.5208   1.5314   1.6081   1.6697   1.6778   1.6899   1.7170   1.7496
  1.7549   1.8025   1.8152   1.8330   1.8572   1.8727   1.8999   1.9118
  1.9200   1.9530   1.9695   1.9828   2.0091   2.0235   2.0414   2.0579
  2.0737   2.0925   2.0995   2.1108   2.1236   2.1439   2.1596   2.1794
  2.1847   2.2109   2.2250   2.2552   2.2936   2.3133   2.3600   2.3828
  2.4131   2.4159   2.4524   2.4875   2.4917   2.5006   2.5285   2.5868
  2.6490   2.6590   2.6747   2.6890   2.7210   2.7330   2.8028   2.8119
  2.8214   2.9972   3.1003   3.1248   3.1347   3.1453   3.1528   3.1973
  3.2227   3.2350   3.2558   3.2662   3.2866   3.3152   3.3787   3.4067
  3.7265   3.7550   4.1162   4.2194
 --------------------------------------------------------------
 
          Ground-State Mulliken Net Atomic Charges

     Atom                 Charge (a.u.)
  ----------------------------------------
      1 O                    -0.000025
      2 H                     0.155476
      3 O                    -0.379577
      4 H                     0.231242
      5 H                     0.175591
      6 C                    -4.101168
      7 C                     0.977430
      8 H                     0.090159
      9 H                     0.180507
     10 H                     0.094074
     11 C                     1.025774
     12 H                     0.031415
     13 H                     0.052081
     14 H                     0.174051
     15 C                     1.026506
     16 H                     0.029317
     17 H                     0.183013
     18 H                     0.054133
  ----------------------------------------
  Sum of atomic charges =     0.000000

 -----------------------------------------------------------------
                    Cartesian Multipole Moments
 -----------------------------------------------------------------
    Charge (ESU x 10^10)
                 0.0000
    Dipole Moment (Debye)
         X       1.3242      Y      -1.0268      Z       1.2533
       Tot       2.0925
    Quadrupole Moments (Debye-Ang)
        XX     -42.0274     XY      -5.0157     YY     -34.4865
        XZ      -1.4333     YZ      -4.3451     ZZ     -38.8412
    Octopole Moments (Debye-Ang^2)
       XXX     194.6388    XXY     -18.2000    XYY      69.0569
       YYY     -75.7553    XXZ     -10.8507    XYZ       0.9275
       YYZ       0.6151    XZZ      60.9459    YZZ     -29.5949
       ZZZ     -27.1473
    Hexadecapole Moments (Debye-Ang^3)
      XXXX   -1067.8199   XXXY     187.1837   XXYY    -241.9075
      XYYY     171.3400   YYYY    -392.7361   XXXZ     -24.8899
      XXYZ      12.9094   XYYZ      -2.8678   YYYZ      17.2169
      XXZZ    -239.8537   XYZZ      72.2044   YYZZ    -109.8111
      XZZZ     -22.9199   YZZZ      22.9274   ZZZZ    -305.3471
 -----------------------------------------------------------------
 Calculating analytic gradient of the SCF energy
 Gradient of SCF Energy
            1           2           3           4           5           6
    1   0.0011883  -0.0007985   0.0005512  -0.0004841  -0.0006385   0.0003127
    2   0.0011145   0.0000741  -0.0011540   0.0011931   0.0004029  -0.0026078
    3  -0.0011098   0.0038263  -0.0030595  -0.0014564   0.0018747  -0.0004472
            7           8           9          10          11          12
    1  -0.0003058   0.0002408   0.0002363  -0.0002312  -0.0004584   0.0003014
    2   0.0001551   0.0002840  -0.0005238   0.0001767   0.0006625   0.0002434
    3  -0.0001164  -0.0003013   0.0000741   0.0004193   0.0002060  -0.0001482
           13          14          15          16          17          18
    1  -0.0002006   0.0002669   0.0000850  -0.0000662   0.0001734  -0.0001725
    2   0.0001532  -0.0005873   0.0007661   0.0000987  -0.0005202   0.0000688
    3  -0.0000290   0.0001406  -0.0000848   0.0005357   0.0000093  -0.0003334
 Max gradient component =       3.826E-03
 RMS gradient           =       9.506E-04
 Gradient time:  CPU 153.87 s  wall 10.40 s
 Geometry Optimization Parameters
   NAtoms,    NIC,     NZ,  NCons,   NDum,   NFix, NCnnct, MaxDiis
       18     115       0       0       0       0       0       0

 Cartesian Hessian Update
 Hessian updated using BFGS update


** GEOMETRY OPTIMIZATION IN DELOCALIZED INTERNAL COORDINATES **
   Searching for a Minimum

   Optimization Cycle:   3

                       Coordinates (Angstroms)
     ATOM                X               Y               Z
      1  O        -1.5722159136   -0.5500049485    0.0229724183
      2  H        -0.7959648685   -0.6550180124    0.5950248048
      3  O         0.7118828678   -1.3906943504    1.4837863001
      4  H         0.1993420015   -1.9262623783    2.0984958908
      5  H         1.2450712984   -2.0170557758    0.9854693558
      6  C        -1.9779611602    0.8136490033    0.0105201699
      7  C        -3.2098810642    0.8721573237   -0.8914356137
      8  H        -4.0026161595    0.2243026728   -0.4909923868
      9  H        -3.5949699762    1.8998020853   -0.9625531917
     10  H        -2.9544948840    0.5199470770   -1.9008786186
     11  C        -2.3301271869    1.2625332008    1.4356642114
     12  H        -3.1204461381    0.6193699670    1.8488719842
     13  H        -1.4463206084    1.1954189829    2.0905888807
     14  H        -2.6815452375    2.3052970113    1.4497921973
     15  C        -0.8479960188    1.6826124209   -0.5584336199
     16  H        -0.5850844704    1.3407323743   -1.5695180222
     17  H        -1.1471657790    2.7406375799   -0.6098585807
     18  H         0.0501632974    1.6107357662    0.0749438204
   Point Group: c1    Number of degrees of freedom:    48


   Energy is   -309.812847535

 Hessian updated using BFGS update

 38 Hessian modes will be used to form the next step
  Hessian Eigenvalues:
     0.001515    0.003892    0.003922    0.004481    0.008927    0.014640
     0.039736    0.050422    0.056111    0.056150    0.056319    0.056524
     0.056586    0.057157    0.059598    0.063374    0.083976    0.128907
     0.160527    0.161315    0.163959    0.165991    0.285148    0.286083
     0.289299    0.324368    0.324424    0.324459    0.324587    0.324692
     0.324749    0.325023    0.325385    0.337316    0.434438    0.491463
     0.494451    0.550145

 Minimum search - taking simple RFO step
 Searching for Lamda that Minimizes Along All modes
 Value Taken    Lamda =  -0.00086328
 Calculated Step too Large.  Step scaled by  0.653501
 Step Taken.  Stepsize is  0.300000

                             Maximum     Tolerance    Cnvgd?
         Gradient           0.002249      0.000100      NO
         Displacement       0.223185      0.000100      NO
         Energy change     -0.000656      0.000000      NO


 New Cartesian Coordinates Obtained by Inverse Iteration

 Displacement from previous Coordinates is:  0.580261
 ----------------------------------------------------------------
             Standard Nuclear Orientation (Angstroms)
    I     Atom           X                Y                Z
 ----------------------------------------------------------------
    1      O      -1.6139983566    -0.5618834936     0.0363391797
    2      H      -0.8427165062    -0.6725819736     0.6122863301
    3      O       0.6937104890    -1.3766323408     1.5365961376
    4      H       0.2317782102    -2.0709747634     2.0180790297
    5      H       1.3414444169    -1.8280554526     0.9870088589
    6      C      -1.9919771646     0.8135658599     0.0140023111
    7      C      -3.2180936658     0.8862419190    -0.8938255156
    8      H      -4.0231413711     0.2564404897    -0.4888050650
    9      H      -3.5847005919     1.9200746509    -0.9779674810
   10      H      -2.9632891620     0.5179502007    -1.8979091127
   11      C      -2.3380930002     1.2745706541     1.4354985425
   12      H      -3.1436020556     0.6500808190     1.8481909339
   13      H      -1.4574598477     1.1893766776     2.0921619470
   14      H      -2.6669478274     2.3253921517     1.4445139244
   15      C      -0.8402324503     1.6509401370    -0.5563191801
   16      H      -0.5824597962     1.2970181653    -1.5649300203
   17      H      -1.1132589653     2.7161193600    -0.6146129622
   18      H       0.0527076449     1.5605169392     0.0821521419
 ----------------------------------------------------------------
 Nuclear Repulsion Energy =         265.51246246 hartrees
 There are       26 alpha and       26 beta electrons
 Applying Cartesian multipole field
    Component          Value
    ---------          -----
     (2,0,0)        1.00000E-11
     (0,2,0)        2.00000E-11
     (0,0,2)       -3.00000E-11
 Nucleus-field energy     =     0.0000000069 hartrees
 Requested basis set is def2-SVPD
 There are 98 shells and 222 basis functions
 A cutoff of  1.0D-14 yielded   4738 shell pairs
 There are     24414 function pairs (     27162 Cartesian)
 Smallest overlap matrix eigenvalue = 1.49E-05
 Guess MOs from SCF MO coefficient file

 -----------------------------------------------------------------------
  General SCF calculation program by
  Eric Jon Sundstrom, Paul Horn, Yuezhi Mao, Dmitri Zuev, Alec White,
  David Stuck, Shaama M.S., Shane Yost, Joonho Lee, David Small,
  Daniel Levine, Susi Lehtola, Hugh Burton, Evgeny Epifanovsky,
  Bang C. Huynh
 -----------------------------------------------------------------------
 Exchange:     0.1670 Hartree-Fock + 1.0000 wB97X-V + LR-HF
 Correlation:  1.0000 wB97X-V
 Using Euler-Maclaurin-Lebedev (99,590) quadrature formula
 Nonlocal Correlation:  VV10 with C = 0.0100 and b = 6.00 and scale = 1.00000
 Grid used for NLC:  SG-1 standard quadrature
 A restricted SCF calculation will be
 performed using DIIS
 SCF converges when DIIS error is below 1.0e-08
 ---------------------------------------
  Cycle       Energy         DIIS error
 ---------------------------------------
    1    -309.7996543873      1.39e-03  
    2    -309.8126307831      2.45e-04  
    3    -309.8132389697      7.68e-05  
    4    -309.8132688712      4.45e-05  
    5    -309.8132797129      6.74e-06  
    6    -309.8132801309      2.12e-06  
    7    -309.8132801626      1.07e-06  
    8    -309.8132801700      1.69e-07  
    9    -309.8132801703      7.38e-08  
   10    -309.8132801704      1.47e-08  
   11    -309.8132801704      3.83e-09  Convergence criterion met
 ---------------------------------------
 SCF time:   CPU 668.92s  wall 45.00s 
 SCF   energy =  -309.81328017
 Total energy =  -309.81328017
 
 --------------------------------------------------------------
 
                    Orbital Energies (a.u.)
 --------------------------------------------------------------
 
 Alpha MOs
 -- Occupied --
-19.2615 -19.1994 -10.3281 -10.2659 -10.2650 -10.2616  -1.1585  -1.1200
 -0.9022  -0.8034  -0.8029  -0.6781  -0.6719  -0.5929  -0.5552  -0.5521
 -0.5337  -0.5093  -0.4955  -0.4798  -0.4604  -0.4540  -0.4478  -0.4416
 -0.4052  -0.3618
 -- Virtual --
  0.0612   0.0960   0.1149   0.1268   0.1368   0.1429   0.1536   0.1656
  0.1686   0.1842   0.1916   0.2010   0.2022   0.2199   0.2261   0.2311
  0.2315   0.2449   0.2464   0.2638   0.2709   0.2729   0.2850   0.2920
  0.3125   0.3283   0.3362   0.3396   0.3481   0.3605   0.3704   0.3768
  0.3822   0.3846   0.3970   0.4052   0.4118   0.4209   0.4260   0.4356
  0.4389   0.4428   0.4464   0.4522   0.4606   0.4650   0.4740   0.4763
  0.4833   0.4850   0.4889   0.5002   0.5017   0.5130   0.5156   0.5224
  0.5337   0.5460   0.5488   0.5581   0.5599   0.5711   0.5819   0.5848
  0.5895   0.5988   0.6063   0.6102   0.6313   0.6374   0.6518   0.6596
  0.6641   0.6724   0.6769   0.6846   0.7067   0.7200   0.7253   0.7314
  0.7364   0.7428   0.7631   0.7747   0.7924   0.8216   0.8319   0.8644
  0.8818   0.8845   0.8907   0.9281   0.9660   0.9822   0.9901   0.9990
  1.0192   1.0444   1.0575   1.0782   1.0905   1.0986   1.1217   1.1436
  1.1486   1.1523   1.1666   1.2019   1.2366   1.2908   1.3228   1.3579
  1.3669   1.3695   1.3834   1.4335   1.4368   1.4556   1.4787   1.5021
  1.5195   1.5275   1.6078   1.6703   1.6894   1.6997   1.7076   1.7482
  1.7584   1.8002   1.8151   1.8301   1.8582   1.8733   1.9085   1.9100
  1.9207   1.9527   1.9649   1.9839   2.0076   2.0248   2.0449   2.0516
  2.0675   2.0934   2.0972   2.1149   2.1213   2.1335   2.1584   2.1801
  2.1839   2.2083   2.2244   2.2552   2.2961   2.3186   2.3608   2.3827
  2.4140   2.4140   2.4523   2.4867   2.4918   2.5025   2.5268   2.5866
  2.6367   2.6587   2.6743   2.6867   2.7214   2.7311   2.8012   2.8139
  2.8219   2.9975   3.0998   3.1256   3.1358   3.1432   3.1529   3.1960
  3.2232   3.2363   3.2564   3.2666   3.2851   3.3121   3.3759   3.4050
  3.7281   3.7516   4.1171   4.2137
 --------------------------------------------------------------
 
          Ground-State Mulliken Net Atomic Charges

     Atom                 Charge (a.u.)
  ----------------------------------------
      1 O                    -0.004504
      2 H                     0.157880
      3 O                    -0.381643
      4 H                     0.227211
      5 H                     0.179656
      6 C                    -4.114369
      7 C                     0.976067
      8 H                     0.094981
      9 H                     0.180086
     10 H                     0.093649
     11 C                     1.026144
     12 H                     0.035205
     13 H                     0.053267
     14 H                     0.179833
     15 C                     1.029545
     16 H                     0.032579
     17 H                     0.186289
     18 H                     0.048126
  ----------------------------------------
  Sum of atomic charges =     0.000000

 -----------------------------------------------------------------
                    Cartesian Multipole Moments
 -----------------------------------------------------------------
    Charge (ESU x 10^10)
                -0.0000
    Dipole Moment (Debye)
         X       1.5917      Y      -0.9777      Z       0.9826
       Tot       2.1107
    Quadrupole Moments (Debye-Ang)
        XX     -41.5428     XY      -5.1250     YY     -34.6247
        XZ      -1.2778     YZ      -4.2097     ZZ     -39.9175
    Octopole Moments (Debye-Ang^2)
       XXX     197.3721    XXY     -18.3847    XYY      68.8073
       YYY     -75.2520    XXZ     -10.4978    XYZ       0.8386
       YYZ       0.7448    XZZ      61.2090    YZZ     -28.7783
       ZZZ     -31.4186
    Hexadecapole Moments (Debye-Ang^3)
      XXXX   -1075.2713   XXXY     185.6328   XXYY    -244.2065
      XYYY     174.7402   YYYY    -389.0142   XXXZ     -23.8652
      XXYZ      12.6005   XYYZ      -3.1255   YYYZ      14.7426
      XXZZ    -241.5137   XYZZ      72.2355   YYZZ    -109.0939
      XZZZ     -23.7616   YZZZ      26.5317   ZZZZ    -318.9269
 -----------------------------------------------------------------
 Calculating analytic gradient of the SCF energy
 Gradient of SCF Energy
            1           2           3           4           5           6
    1   0.0014065  -0.0013717   0.0009892  -0.0006167  -0.0004395  -0.0001337
    2  -0.0004015   0.0002852  -0.0014322   0.0012413   0.0004559  -0.0000509
    3  -0.0006686   0.0022960  -0.0020736  -0.0008029   0.0012149  -0.0001720
            7           8           9          10          11          12
    1  -0.0001914   0.0002588   0.0001298  -0.0000281  -0.0001497   0.0001899
    2  -0.0001617   0.0001540  -0.0003040   0.0000963   0.0000399   0.0001710
    3  -0.0001058  -0.0000980   0.0000370   0.0003088   0.0001546  -0.0001558
           13          14          15          16          17          18
    1  -0.0001338   0.0001369   0.0001415  -0.0000542   0.0000696  -0.0002034
    2   0.0001504  -0.0002584   0.0002695   0.0000415  -0.0002710  -0.0000252
    3  -0.0001598   0.0001102   0.0000252   0.0003184   0.0000024  -0.0002311
 Max gradient component =       2.296E-03
 RMS gradient           =       6.485E-04
 Gradient time:  CPU 150.07 s  wall 10.25 s
 Geometry Optimization Parameters
   NAtoms,    NIC,     NZ,  NCons,   NDum,   NFix, NCnnct, MaxDiis
       18     115       0       0       0       0       0       0

 Cartesian Hessian Update
 Hessian updated using BFGS update


** GEOMETRY OPTIMIZATION IN DELOCALIZED INTERNAL COORDINATES **
   Searching for a Minimum

   Optimization Cycle:   4

                       Coordinates (Angstroms)
     ATOM                X               Y               Z
      1  O        -1.6139983566   -0.5618834936    0.0363391797
      2  H        -0.8427165062   -0.6725819736    0.6122863301
      3  O         0.6937104890   -1.3766323408    1.5365961376
      4  H         0.2317782102   -2.0709747634    2.0180790297
      5  H         1.3414444169   -1.8280554526    0.9870088589
      6  C        -1.9919771646    0.8135658599    0.0140023111
      7  C        -3.2180936658    0.8862419190   -0.8938255156
      8  H        -4.0231413711    0.2564404897   -0.4888050650
      9  H        -3.5847005919    1.9200746509   -0.9779674810
     10  H        -2.9632891620    0.5179502007   -1.8979091127
     11  C        -2.3380930002    1.2745706541    1.4354985425
     12  H        -3.1436020556    0.6500808190    1.8481909339
     13  H        -1.4574598477    1.1893766776    2.0921619470
     14  H        -2.6669478274    2.3253921517    1.4445139244
     15  C        -0.8402324503    1.6509401370   -0.5563191801
     16  H        -0.5824597962    1.2970181653   -1.5649300203
     17  H        -1.1132589653    2.7161193600   -0.6146129622
     18  H         0.0527076449    1.5605169392    0.0821521419
   Point Group: c1    Number of degrees of freedom:    48


   Energy is   -309.813280170

 Hessian updated using BFGS update

 39 Hessian modes will be used to form the next step
  Hessian Eigenvalues:
     0.001840    0.003892    0.003925    0.004481    0.009143    0.014655
     0.032848    0.049906    0.056111    0.056151    0.056319    0.056527
     0.056591    0.057183    0.059664    0.063377    0.082306    0.117580
     0.160210    0.161307    0.161664    0.163511    0.165575    0.285240
     0.286518    0.289535    0.324406    0.324454    0.324519    0.324588
     0.324747    0.324750    0.325054    0.325390    0.336021    0.439236
     0.492289    0.494444    0.541223

 Minimum search - taking simple RFO step
 Searching for Lamda that Minimizes Along All modes
 Value Taken    Lamda =  -0.00037991
 Step Taken.  Stepsize is  0.286247

                             Maximum     Tolerance    Cnvgd?
         Gradient           0.001490      0.000100      NO
         Displacement       0.223544      0.000100      NO
         Energy change     -0.000433      0.000000      NO


 New Cartesian Coordinates Obtained by Inverse Iteration

 Displacement from previous Coordinates is:  0.547820
 ----------------------------------------------------------------
             Standard Nuclear Orientation (Angstroms)
    I     Atom           X                Y                Z
 ----------------------------------------------------------------
    1      O      -1.6619403705    -0.5793694285     0.0373109546
    2      H      -0.8906705447    -0.6991934155     0.6109819960
    3      O       0.6770711245    -1.3581069227     1.5834354342
    4      H       0.3038340919    -2.1653577597     1.9534807796
    5      H       1.4038126750    -1.6407323558     1.0187669309
    6      C      -2.0072102939     0.8077525765     0.0131573157
    7      C      -3.2292835486     0.9089072232    -0.8975342385
    8      H      -4.0501830022     0.2997961347    -0.4919814957
    9      H      -3.5708435963     1.9515224706    -0.9852355467
   10      H      -2.9812523293     0.5316254966    -1.9003287955
   11      C      -2.3427283509     1.2741771960     1.4345838763
   12      H      -3.1665171615     0.6713024834     1.8439570995
   13      H      -1.4664436319     1.1610024697     2.0928025559
   14      H      -2.6424424476     2.3341469942     1.4445587242
   15      C      -0.8324656508     1.6130161792    -0.5551282979
   16      H      -0.5815640722     1.2523287543    -1.5635131622
   17      H      -1.0768278844     2.6854641524    -0.6143567519
   18      H       0.0553249934     1.4998777513     0.0875026213
 ----------------------------------------------------------------
 Nuclear Repulsion Energy =         265.30489341 hartrees
 There are       26 alpha and       26 beta electrons
 Applying Cartesian multipole field
    Component          Value
    ---------          -----
     (2,0,0)        1.00000E-11
     (0,2,0)        2.00000E-11
     (0,0,2)       -3.00000E-11
 Nucleus-field energy     =     0.0000000068 hartrees
 Requested basis set is def2-SVPD
 There are 98 shells and 222 basis functions
 A cutoff of  1.0D-14 yielded   4736 shell pairs
 There are     24408 function pairs (     27156 Cartesian)
 Smallest overlap matrix eigenvalue = 1.51E-05
 Guess MOs from SCF MO coefficient file

 -----------------------------------------------------------------------
  General SCF calculation program by
  Eric Jon Sundstrom, Paul Horn, Yuezhi Mao, Dmitri Zuev, Alec White,
  David Stuck, Shaama M.S., Shane Yost, Joonho Lee, David Small,
  Daniel Levine, Susi Lehtola, Hugh Burton, Evgeny Epifanovsky,
  Bang C. Huynh
 -----------------------------------------------------------------------
 Exchange:     0.1670 Hartree-Fock + 1.0000 wB97X-V + LR-HF
 Correlation:  1.0000 wB97X-V
 Using Euler-Maclaurin-Lebedev (99,590) quadrature formula
 Nonlocal Correlation:  VV10 with C = 0.0100 and b = 6.00 and scale = 1.00000
 Grid used for NLC:  SG-1 standard quadrature
 A restricted SCF calculation will be
 performed using DIIS
 SCF converges when DIIS error is below 1.0e-08
 ---------------------------------------
  Cycle       Energy         DIIS error
 ---------------------------------------
    1    -309.8029104826      1.24e-03  
    2    -309.8130238964      2.15e-04  
    3    -309.8134956307      6.84e-05  
    4    -309.8135192380      3.89e-05  
    5    -309.8135274810      6.08e-06  
    6    -309.8135277925      1.89e-06  
    7    -309.8135278181      8.92e-07  
    8    -309.8135278231      1.83e-07  
    9    -309.8135278234      6.45e-08  
   10    -309.8135278234      1.19e-08  
   11    -309.8135278234      3.13e-09  Convergence criterion met
 ---------------------------------------
 SCF time:   CPU 672.76s  wall 45.00s 
 SCF   energy =  -309.81352782
 Total energy =  -309.81352782
 
 --------------------------------------------------------------
 
                    Orbital Energies (a.u.)
 --------------------------------------------------------------
 
 Alpha MOs
 -- Occupied --
-19.2615 -19.1997 -10.3283 -10.2659 -10.2653 -10.2619  -1.1578  -1.1196
 -0.9022  -0.8033  -0.8031  -0.6767  -0.6720  -0.5925  -0.5554  -0.5519
 -0.5331  -0.5093  -0.4956  -0.4793  -0.4605  -0.4544  -0.4476  -0.4416
 -0.4058  -0.3619
 -- Virtual --
  0.0607   0.0961   0.1145   0.1266   0.1363   0.1432   0.1538   0.1660
  0.1688   0.1839   0.1915   0.1993   0.2043   0.2196   0.2275   0.2295
  0.2308   0.2446   0.2467   0.2633   0.2706   0.2734   0.2856   0.2919
  0.3083   0.3301   0.3335   0.3375   0.3516   0.3601   0.3696   0.3762
  0.3821   0.3842   0.3967   0.4043   0.4122   0.4186   0.4242   0.4339
  0.4387   0.4430   0.4448   0.4546   0.4627   0.4652   0.4735   0.4770
  0.4821   0.4870   0.4889   0.5005   0.5015   0.5104   0.5159   0.5199
  0.5339   0.5441   0.5474   0.5571   0.5604   0.5741   0.5796   0.5849
  0.5902   0.5986   0.6067   0.6106   0.6320   0.6381   0.6493   0.6597
  0.6665   0.6763   0.6773   0.6831   0.7050   0.7174   0.7274   0.7313
  0.7413   0.7430   0.7631   0.7785   0.7850   0.8154   0.8288   0.8626
  0.8806   0.8838   0.8945   0.9328   0.9642   0.9809   0.9881   1.0004
  1.0200   1.0455   1.0558   1.0779   1.0909   1.0939   1.1178   1.1436
  1.1483   1.1512   1.1676   1.2008   1.2411   1.2904   1.3183   1.3594
  1.3653   1.3683   1.3871   1.4331   1.4360   1.4480   1.4758   1.5023
  1.5177   1.5223   1.6055   1.6660   1.6863   1.7017   1.7142   1.7491
  1.7643   1.7972   1.8153   1.8290   1.8587   1.8743   1.9075   1.9101
  1.9202   1.9597   1.9611   1.9840   2.0061   2.0253   2.0414   2.0474
  2.0695   2.0912   2.0949   2.1168   2.1211   2.1287   2.1593   2.1801
  2.1817   2.2072   2.2232   2.2539   2.2954   2.3193   2.3619   2.3769
  2.4131   2.4160   2.4520   2.4849   2.4911   2.5028   2.5255   2.5862
  2.6223   2.6582   2.6732   2.6839   2.7227   2.7297   2.8000   2.8143
  2.8217   2.9973   3.1000   3.1256   3.1374   3.1407   3.1520   3.1946
  3.2239   3.2368   3.2563   3.2673   3.2835   3.3113   3.3733   3.4033
  3.7272   3.7465   4.1180   4.2059
 --------------------------------------------------------------
 
          Ground-State Mulliken Net Atomic Charges

     Atom                 Charge (a.u.)
  ----------------------------------------
      1 O                    -0.005752
      2 H                     0.159120
      3 O                    -0.372253
      4 H                     0.214407
      5 H                     0.182043
      6 C                    -4.115836
      7 C                     0.976096
      8 H                     0.097471
      9 H                     0.180434
     10 H                     0.092770
     11 C                     1.022636
     12 H                     0.038441
     13 H                     0.049298
     14 H                     0.187345
     15 C                     1.026603
     16 H                     0.036825
     17 H                     0.188483
     18 H                     0.041870
  ----------------------------------------
  Sum of atomic charges =     0.000000

 -----------------------------------------------------------------
                    Cartesian Multipole Moments
 -----------------------------------------------------------------
    Charge (ESU x 10^10)
                -0.0000
    Dipole Moment (Debye)
         X       1.8662      Y      -0.8702      Z       0.7975
       Tot       2.2082
    Quadrupole Moments (Debye-Ang)
        XX     -41.2353     XY      -5.2598     YY     -34.8521
        XZ      -0.9345     YZ      -4.0647     ZZ     -40.7519
    Octopole Moments (Debye-Ang^2)
       XXX     199.7918    XXY     -18.0386    XYY      68.8759
       YYY     -74.7463    XXZ      -9.9937    XYZ       0.4339
       YYZ       0.7312    XZZ      62.0021    YZZ     -27.8607
       ZZZ     -34.6679
    Hexadecapole Moments (Debye-Ang^3)
      XXXX   -1084.1796   XXXY     184.2580   XXYY    -247.1049
      XYYY     176.3859   YYYY    -381.1107   XXXZ     -23.7368
      XXYZ      12.3910   XYYZ      -2.8858   YYYZ      13.1638
      XXZZ    -243.0455   XYZZ      71.1681   YYZZ    -108.7900
      XZZZ     -24.2909   YZZZ      30.1236   ZZZZ    -330.5626
 -----------------------------------------------------------------
 Calculating analytic gradient of the SCF energy
 Gradient of SCF Energy
            1           2           3           4           5           6
    1   0.0010721  -0.0011532   0.0010995  -0.0006790  -0.0000713  -0.0004384
    2  -0.0017164   0.0007687  -0.0010608   0.0006765   0.0003558   0.0017637
    3  -0.0004037   0.0012005  -0.0008865  -0.0003462   0.0005188   0.0000015
            7           8           9          10          11          12
    1  -0.0001981   0.0001536  -0.0000362   0.0000651   0.0001906   0.0000460
    2  -0.0001655   0.0000395  -0.0000225   0.0000085  -0.0003524   0.0000550
    3  -0.0001405   0.0000404  -0.0000526   0.0001247   0.0000467  -0.0000682
           13          14          15          16          17          18
    1  -0.0000554   0.0000254   0.0001169  -0.0000274  -0.0000098  -0.0001004
    2   0.0000439  -0.0000439  -0.0002333   0.0000176  -0.0000758  -0.0000586
    3  -0.0000972  -0.0000230   0.0000811   0.0000281   0.0000114  -0.0000353
 Max gradient component =       1.764E-03
 RMS gradient           =       5.428E-04
 Gradient time:  CPU 145.78 s  wall 9.87 s
 Geometry Optimization Parameters
   NAtoms,    NIC,     NZ,  NCons,   NDum,   NFix, NCnnct, MaxDiis
       18     115       0       0       0       0       0       0

 Cartesian Hessian Update
 Hessian updated using BFGS update


** GEOMETRY OPTIMIZATION IN DELOCALIZED INTERNAL COORDINATES **
   Searching for a Minimum

   Optimization Cycle:   5

                       Coordinates (Angstroms)
     ATOM                X               Y               Z
      1  O        -1.6619403705   -0.5793694285    0.0373109546
      2  H        -0.8906705447   -0.6991934155    0.6109819960
      3  O         0.6770711245   -1.3581069227    1.5834354342
      4  H         0.3038340919   -2.1653577597    1.9534807796
      5  H         1.4038126750   -1.6407323558    1.0187669309
      6  C        -2.0072102939    0.8077525765    0.0131573157
      7  C        -3.2292835486    0.9089072232   -0.8975342385
      8  H        -4.0501830022    0.2997961347   -0.4919814957
      9  H        -3.5708435963    1.9515224706   -0.9852355467
     10  H        -2.9812523293    0.5316254966   -1.9003287955
     11  C        -2.3427283509    1.2741771960    1.4345838763
     12  H        -3.1665171615    0.6713024834    1.8439570995
     13  H        -1.4664436319    1.1610024697    2.0928025559
     14  H        -2.6424424476    2.3341469942    1.4445587242
     15  C        -0.8324656508    1.6130161792   -0.5551282979
     16  H        -0.5815640722    1.2523287543   -1.5635131622
     17  H        -1.0768278844    2.6854641524   -0.6143567519
     18  H         0.0553249934    1.4998777513    0.0875026213
   Point Group: c1    Number of degrees of freedom:    48


   Energy is   -309.813527823

 Hessian updated using BFGS update

 40 Hessian modes will be used to form the next step
  Hessian Eigenvalues:
     0.001983    0.003892    0.003930    0.004484    0.009582    0.014479
     0.024930    0.049534    0.056112    0.056153    0.056319    0.056524
     0.056588    0.057180    0.059837    0.063382    0.079295    0.105883
     0.160089    0.160163    0.161283    0.161361    0.164873    0.165254
     0.285275    0.286622    0.289577    0.324405    0.324462    0.324504
     0.324588    0.324741    0.324752    0.325060    0.325379    0.335951
     0.443426    0.492109    0.494456    0.535527

 Minimum search - taking simple RFO step
 Searching for Lamda that Minimizes Along All modes
 Value Taken    Lamda =  -0.00012954
 Step Taken.  Stepsize is  0.120009

                             Maximum     Tolerance    Cnvgd?
         Gradient           0.001149      0.000100      NO
         Displacement       0.098859      0.000100      NO
         Energy change     -0.000248      0.000000      NO


 New Cartesian Coordinates Obtained by Inverse Iteration

 Displacement from previous Coordinates is:  0.214835
 ----------------------------------------------------------------
             Standard Nuclear Orientation (Angstroms)
    I     Atom           X                Y                Z
 ----------------------------------------------------------------
    1      O      -1.6861447409    -0.5894786426     0.0262477299
    2      H      -0.9107296231    -0.7184053712     0.5920303051
    3      O       0.6740946559    -1.3414609154     1.5981904451
    4      H       0.3489400810    -2.1693988386     1.9685507969
    5      H       1.4138065257    -1.5826861674     1.0303173038
    6      C      -2.0136430343     0.8024733718     0.0096881879
    7      C      -3.2347749178     0.9235316747    -0.8993305876
    8      H      -4.0630455482     0.3220141035    -0.4970204772
    9      H      -3.5635740390     1.9709357515    -0.9798057860
   10      H      -2.9923250209     0.5498247317    -1.9049964024
   11      C      -2.3428229670     1.2656516663     1.4337074700
   12      H      -3.1746025413     0.6714806086     1.8399663753
   13      H      -1.4683090572     1.1361689729     2.0913103088
   14      H      -2.6284409557     2.3296320269     1.4494154166
   15      C      -0.8299342830     1.5965915991    -0.5559038358
   16      H      -0.5819607375     1.2360497519    -1.5651781296
   17      H      -1.0628021774     2.6719124738    -0.6125314231
   18      H       0.0559383807     1.4733232024     0.0878023022
 ----------------------------------------------------------------
 Nuclear Repulsion Energy =         265.23356489 hartrees
 There are       26 alpha and       26 beta electrons
 Applying Cartesian multipole field
    Component          Value
    ---------          -----
     (2,0,0)        1.00000E-11
     (0,2,0)        2.00000E-11
     (0,0,2)       -3.00000E-11
 Nucleus-field energy     =     0.0000000067 hartrees
 Requested basis set is def2-SVPD
 There are 98 shells and 222 basis functions
 A cutoff of  1.0D-14 yielded   4734 shell pairs
 There are     24414 function pairs (     27164 Cartesian)
 Smallest overlap matrix eigenvalue = 1.52E-05
 Guess MOs from SCF MO coefficient file

 -----------------------------------------------------------------------
  General SCF calculation program by
  Eric Jon Sundstrom, Paul Horn, Yuezhi Mao, Dmitri Zuev, Alec White,
  David Stuck, Shaama M.S., Shane Yost, Joonho Lee, David Small,
  Daniel Levine, Susi Lehtola, Hugh Burton, Evgeny Epifanovsky,
  Bang C. Huynh
 -----------------------------------------------------------------------
 Exchange:     0.1670 Hartree-Fock + 1.0000 wB97X-V + LR-HF
 Correlation:  1.0000 wB97X-V
 Using Euler-Maclaurin-Lebedev (99,590) quadrature formula
 Nonlocal Correlation:  VV10 with C = 0.0100 and b = 6.00 and scale = 1.00000
 Grid used for NLC:  SG-1 standard quadrature
 A restricted SCF calculation will be
 performed using DIIS
 SCF converges when DIIS error is below 1.0e-08
 ---------------------------------------
  Cycle       Energy         DIIS error
 ---------------------------------------
    1    -309.8125591433      4.03e-04  
    2    -309.8135771320      6.70e-05  
    3    -309.8136252967      2.17e-05  
    4    -309.8136279135      1.30e-05  
    5    -309.8136288192      2.63e-06  
    6    -309.8136288692      6.84e-07  
    7    -309.8136288737      2.75e-07  
    8    -309.8136288743      7.47e-08  
    9    -309.8136288744      3.17e-08  
   10    -309.8136288744      5.56e-09  Convergence criterion met
 ---------------------------------------
 SCF time:   CPU 593.88s  wall 39.00s 
 SCF   energy =  -309.81362887
 Total energy =  -309.81362887
 
 --------------------------------------------------------------
 
                    Orbital Energies (a.u.)
 --------------------------------------------------------------
 
 Alpha MOs
 -- Occupied --
-19.2616 -19.1999 -10.3282 -10.2661 -10.2651 -10.2618  -1.1576  -1.1197
 -0.9022  -0.8034  -0.8028  -0.6759  -0.6722  -0.5924  -0.5555  -0.5519
 -0.5330  -0.5093  -0.4955  -0.4789  -0.4604  -0.4547  -0.4476  -0.4416
 -0.4060  -0.3620
 -- Virtual --
  0.0601   0.0963   0.1142   0.1267   0.1364   0.1427   0.1541   0.1664
  0.1689   0.1837   0.1916   0.1985   0.2052   0.2194   0.2279   0.2291
  0.2308   0.2447   0.2469   0.2640   0.2702   0.2733   0.2863   0.2918
  0.3076   0.3294   0.3325   0.3368   0.3535   0.3595   0.3689   0.3762
  0.3820   0.3841   0.3961   0.4040   0.4114   0.4183   0.4236   0.4329
  0.4387   0.4423   0.4454   0.4550   0.4629   0.4649   0.4736   0.4771
  0.4821   0.4873   0.4900   0.5012   0.5015   0.5103   0.5167   0.5186
  0.5342   0.5428   0.5468   0.5566   0.5604   0.5754   0.5784   0.5856
  0.5903   0.5992   0.6070   0.6109   0.6319   0.6391   0.6497   0.6597
  0.6687   0.6761   0.6773   0.6834   0.7053   0.7162   0.7281   0.7318
  0.7418   0.7444   0.7632   0.7785   0.7839   0.8127   0.8257   0.8613
  0.8801   0.8839   0.8951   0.9324   0.9640   0.9803   0.9867   1.0012
  1.0211   1.0469   1.0546   1.0783   1.0897   1.0934   1.1142   1.1437
  1.1480   1.1517   1.1683   1.2027   1.2412   1.2897   1.3169   1.3599
  1.3648   1.3677   1.3890   1.4333   1.4355   1.4461   1.4760   1.5030
  1.5162   1.5194   1.6046   1.6646   1.6840   1.7030   1.7192   1.7501
  1.7688   1.7965   1.8169   1.8289   1.8591   1.8757   1.9071   1.9098
  1.9155   1.9581   1.9663   1.9832   2.0058   2.0254   2.0387   2.0481
  2.0711   2.0906   2.0945   2.1153   2.1216   2.1303   2.1603   2.1809
  2.1811   2.2082   2.2230   2.2532   2.2947   2.3183   2.3618   2.3749
  2.4132   2.4165   2.4515   2.4845   2.4906   2.5024   2.5251   2.5859
  2.6145   2.6581   2.6729   2.6825   2.7238   2.7298   2.8001   2.8143
  2.8215   2.9972   3.0998   3.1255   3.1382   3.1398   3.1514   3.1941
  3.2245   3.2369   3.2562   3.2675   3.2832   3.3114   3.3726   3.4030
  3.7271   3.7439   4.1188   4.2012
 --------------------------------------------------------------
 
          Ground-State Mulliken Net Atomic Charges

     Atom                 Charge (a.u.)
  ----------------------------------------
      1 O                    -0.011845
      2 H                     0.159702
      3 O                    -0.365557
      4 H                     0.205043
      5 H                     0.183318
      6 C                    -4.102850
      7 C                     0.974437
      8 H                     0.097004
      9 H                     0.180503
     10 H                     0.092327
     11 C                     1.021075
     12 H                     0.040708
     13 H                     0.043618
     14 H                     0.191254
     15 C                     1.025257
     16 H                     0.039684
     17 H                     0.189351
     18 H                     0.036974
  ----------------------------------------
  Sum of atomic charges =     0.000000

 -----------------------------------------------------------------
                    Cartesian Multipole Moments
 -----------------------------------------------------------------
    Charge (ESU x 10^10)
                -0.0000
    Dipole Moment (Debye)
         X       1.9796      Y      -0.8379      Z       0.7995
       Tot       2.2934
    Quadrupole Moments (Debye-Ang)
        XX     -41.2574     XY      -5.3886     YY     -34.9848
        XZ      -0.7846     YZ      -4.1434     ZZ     -40.7815
    Octopole Moments (Debye-Ang^2)
       XXX     200.7024    XXY     -17.8525    XYY      69.2364
       YYY     -74.2627    XXZ      -9.7287    XYZ       0.1028
       YYZ       0.9383    XZZ      62.5367    YZZ     -28.0664
       ZZZ     -34.6115
    Hexadecapole Moments (Debye-Ang^3)
      XXXX   -1089.3608   XXXY     183.6964   XXYY    -248.0961
      XYYY     175.9475   YYYY    -377.3197   XXXZ     -24.7017
      XXYZ      12.3276   XYYZ      -2.6125   YYYZ      13.0056
      XXZZ    -243.9123   XYZZ      70.1394   YYZZ    -107.6290
      XZZZ     -24.6033   YZZZ      29.6266   ZZZZ    -332.2086
 -----------------------------------------------------------------
 Calculating analytic gradient of the SCF energy
 Gradient of SCF Energy
            1           2           3           4           5           6
    1   0.0005605  -0.0010015   0.0009964  -0.0005861   0.0001529  -0.0002970
    2  -0.0019527   0.0009883  -0.0006755   0.0002333   0.0002209   0.0018603
    3  -0.0003755   0.0006215  -0.0002040  -0.0002141   0.0001651   0.0000914
            7           8           9          10          11          12
    1   0.0000357   0.0000526  -0.0000125   0.0000713   0.0001441   0.0000065
    2  -0.0002238   0.0000009   0.0000454  -0.0000229  -0.0002913   0.0000024
    3   0.0000205   0.0000643  -0.0000253   0.0000255  -0.0000384   0.0000040
           13          14          15          16          17          18
    1  -0.0000425  -0.0000332   0.0000120  -0.0000064   0.0000100  -0.0000629
    2  -0.0000202   0.0000613  -0.0002829   0.0000206   0.0000529  -0.0000170
    3  -0.0000528  -0.0000343  -0.0000530  -0.0000466   0.0000037   0.0000480
 Max gradient component =       1.953E-03
 RMS gradient           =       4.812E-04
 Gradient time:  CPU 145.70 s  wall 9.84 s
 Geometry Optimization Parameters
   NAtoms,    NIC,     NZ,  NCons,   NDum,   NFix, NCnnct, MaxDiis
       18     115       0       0       0       0       0       0

 Cartesian Hessian Update
 Hessian updated using BFGS update


** GEOMETRY OPTIMIZATION IN DELOCALIZED INTERNAL COORDINATES **
   Searching for a Minimum

   Optimization Cycle:   6

                       Coordinates (Angstroms)
     ATOM                X               Y               Z
      1  O        -1.6861447409   -0.5894786426    0.0262477299
      2  H        -0.9107296231   -0.7184053712    0.5920303051
      3  O         0.6740946559   -1.3414609154    1.5981904451
      4  H         0.3489400810   -2.1693988386    1.9685507969
      5  H         1.4138065257   -1.5826861674    1.0303173038
      6  C        -2.0136430343    0.8024733718    0.0096881879
      7  C        -3.2347749178    0.9235316747   -0.8993305876
      8  H        -4.0630455482    0.3220141035   -0.4970204772
      9  H        -3.5635740390    1.9709357515   -0.9798057860
     10  H        -2.9923250209    0.5498247317   -1.9049964024
     11  C        -2.3428229670    1.2656516663    1.4337074700
     12  H        -3.1746025413    0.6714806086    1.8399663753
     13  H        -1.4683090572    1.1361689729    2.0913103088
     14  H        -2.6284409557    2.3296320269    1.4494154166
     15  C        -0.8299342830    1.5965915991   -0.5559038358
     16  H        -0.5819607375    1.2360497519   -1.5651781296
     17  H        -1.0628021774    2.6719124738   -0.6125314231
     18  H         0.0559383807    1.4733232024    0.0878023022
   Point Group: c1    Number of degrees of freedom:    48


   Energy is   -309.813628874

 Hessian updated using BFGS update

 41 Hessian modes will be used to form the next step
  Hessian Eigenvalues:
     0.002129    0.003889    0.003920    0.004480    0.007763    0.013078
     0.018178    0.048287    0.056126    0.056158    0.056319    0.056528
     0.056589    0.057145    0.060297    0.063365    0.070635    0.094258
     0.159352    0.160131    0.160319    0.160668    0.161325    0.164166
     0.165812    0.285019    0.285836    0.290434    0.324392    0.324422
     0.324490    0.324588    0.324698    0.324760    0.325073    0.325385
[...]
 H          0.230 -0.026  0.275    0.093 -0.042  0.092   -0.171  0.217  0.062
 H         -0.074 -0.017  0.091    0.135  0.000  0.106    0.298 -0.022  0.222
 H         -0.325  0.000 -0.144    0.115 -0.036  0.055   -0.023  0.252 -0.127
 C          0.051 -0.066  0.072    0.068  0.012  0.030    0.002 -0.101  0.013
 H         -0.111  0.143  0.022   -0.036  0.025 -0.164   -0.144  0.153  0.022
 H         -0.108  0.207  0.377   -0.119  0.044  0.294    0.100  0.207 -0.039
 H         -0.013 -0.045 -0.342   -0.137 -0.027  0.018    0.106 -0.043 -0.387
 C         -0.093  0.055 -0.018    0.046  0.006  0.059    0.029 -0.094 -0.023
 H          0.040 -0.156  0.078   -0.165 -0.003  0.009   -0.046  0.173 -0.107
 H          0.316  0.116 -0.057   -0.014  0.001 -0.138   -0.331 -0.145  0.183
 H         -0.292 -0.299  0.149    0.238  0.130 -0.172   -0.047  0.172  0.149
 TransDip   0.016  0.003 -0.021   -0.084  0.208 -0.027   -0.050  0.267  0.009

 Mode:                25                     26                     27
 Frequency:      1274.28                1373.48                1392.67
 Force Cnst:      2.2875                 1.3546                 1.6431
 Red. Mass:       2.3910                 1.2188                 1.4379
 IR Active:          YES                    YES                    YES
 IR Intens:       12.535                 15.322                 28.541
 Raman Active:       YES                    YES                    YES
               X      Y      Z        X      Y      Z        X      Y      Z
 O          0.017  0.004 -0.022   -0.026 -0.022 -0.023   -0.003 -0.001  0.003
 H         -0.009 -0.006  0.011    0.027  0.479  0.103   -0.003  0.008  0.007
 O          0.001  0.000 -0.001   -0.000 -0.003 -0.001    0.000 -0.000 -0.000
 H         -0.006  0.004  0.002   -0.002  0.011  0.010   -0.001  0.000 -0.000
 H          0.001 -0.004  0.003    0.005  0.015 -0.003    0.001  0.001  0.001
 C         -0.190 -0.043  0.253    0.053 -0.012  0.039    0.052  0.012 -0.065
 C          0.066  0.015 -0.088    0.075 -0.026  0.052   -0.014 -0.004  0.022
 H          0.168  0.066  0.259   -0.236  0.194 -0.295   -0.001 -0.058 -0.043
 H         -0.171 -0.040  0.223   -0.326 -0.120 -0.269    0.076  0.017 -0.116
 H         -0.285 -0.088 -0.115   -0.378  0.160 -0.110    0.013  0.074 -0.001
 C          0.054  0.031 -0.036   -0.026  0.018  0.024   -0.039  0.023  0.115
 H          0.028 -0.173 -0.403    0.035 -0.143 -0.097   -0.043 -0.229 -0.299
 H          0.032 -0.201 -0.106    0.077 -0.059 -0.139    0.220 -0.081 -0.282
 H         -0.103 -0.008 -0.196    0.102  0.048 -0.124    0.139  0.089 -0.383
 C          0.023 -0.013 -0.068    0.015  0.028 -0.028   -0.097 -0.056  0.059
 H          0.348  0.260 -0.085   -0.064 -0.172  0.025    0.263  0.286  0.020
 H          0.213  0.034  0.058   -0.106  0.002  0.141    0.355  0.024 -0.242
 H          0.052  0.221 -0.008   -0.105 -0.105  0.099    0.196  0.187 -0.263
 TransDip  -0.068 -0.014  0.090   -0.051  0.113 -0.017    0.102  0.029 -0.134

 Mode:                28                     29                     30
 Frequency:      1408.07                1425.62                1452.48
 Force Cnst:      1.5677                 1.7506                 1.3011
 Red. Mass:       1.3421                 1.4619                 1.0467
 IR Active:          YES                    YES                    YES
 IR Intens:       29.408                 29.361                  0.082
 Raman Active:       YES                    YES                    YES
               X      Y      Z        X      Y      Z        X      Y      Z
 O         -0.012 -0.013 -0.011   -0.027 -0.022 -0.025    0.000 -0.000 -0.000
 H          0.011  0.188  0.040    0.028  0.483  0.105    0.001  0.001 -0.001
 O         -0.000 -0.001 -0.000    0.000 -0.003 -0.001   -0.000  0.000  0.000
 H          0.000  0.004  0.004   -0.004  0.012  0.010    0.002 -0.002 -0.001
 H          0.002  0.005  0.000    0.004  0.016 -0.004   -0.000  0.001 -0.000
 C          0.050  0.024  0.044    0.106 -0.012  0.078    0.002  0.001 -0.003
 C          0.019 -0.021  0.011   -0.103  0.006 -0.077    0.022  0.005 -0.029
 H         -0.111  0.119 -0.070    0.129 -0.105  0.274   -0.159  0.259 -0.032
 H         -0.128 -0.053 -0.105    0.262  0.100  0.216   -0.279 -0.065  0.366
 H         -0.118  0.117 -0.062    0.313 -0.060  0.033    0.117 -0.270  0.085
 C          0.005 -0.033 -0.106   -0.046  0.012 -0.013   -0.031 -0.008 -0.006
 H          0.057  0.164  0.312    0.144 -0.254 -0.003    0.087 -0.223 -0.078
 H         -0.185  0.208  0.248   -0.019  0.055 -0.016   -0.036  0.255  0.099
 H          0.046 -0.054  0.407    0.310  0.083 -0.025    0.384  0.076  0.066
 C         -0.090 -0.054  0.020   -0.027  0.016 -0.037    0.012  0.003  0.030
 H          0.270  0.204  0.015    0.082 -0.268  0.083    0.011  0.246 -0.053
 H          0.394  0.030 -0.054    0.049  0.024  0.315   -0.154 -0.025 -0.364
 H          0.140  0.278 -0.178   -0.029  0.052 -0.005   -0.040 -0.271  0.002
 TransDip   0.031  0.161  0.057    0.116  0.079  0.102   -0.005 -0.002  0.008

 Mode:                31                     32                     33
 Frequency:      1466.00                1468.30                1480.82
 Force Cnst:      1.3239                 1.3257                 1.3958
 Red. Mass:       1.0456                 1.0437                 1.0804
 IR Active:          YES                    YES                    YES
 IR Intens:        0.004                  0.102                  2.434
 Raman Active:       YES                    YES                    YES
               X      Y      Z        X      Y      Z        X      Y      Z
 O         -0.000 -0.000  0.000    0.000  0.001  0.000   -0.003 -0.001  0.003
 H          0.005  0.001 -0.007   -0.000 -0.004 -0.001   -0.010 -0.002  0.014
 O         -0.000  0.000  0.000   -0.001  0.001 -0.000    0.000 -0.000 -0.000
 H          0.004 -0.002 -0.001    0.008 -0.006 -0.004   -0.004  0.002  0.001
 H         -0.001  0.001 -0.002    0.001 -0.008  0.006    0.001 -0.000  0.001
 C          0.002  0.000 -0.004    0.003  0.001  0.001    0.038  0.009 -0.049
 C          0.009  0.005 -0.010   -0.006 -0.040 -0.013    0.017  0.004 -0.023
 H         -0.071  0.090 -0.047   -0.049  0.301  0.390   -0.201  0.288 -0.068
 H         -0.107 -0.023  0.169   -0.197 -0.078 -0.142   -0.299 -0.070  0.394
 H          0.032 -0.145  0.046    0.315  0.363 -0.065    0.164 -0.301  0.111
 C          0.013 -0.034  0.020    0.010  0.021 -0.006    0.011  0.020  0.020
 H         -0.318  0.294 -0.246    0.103 -0.009  0.179    0.034  0.069  0.161
 H          0.250  0.272 -0.221   -0.101 -0.293  0.041   -0.033 -0.327 -0.039
 H         -0.128 -0.066  0.206   -0.170 -0.013 -0.147   -0.264 -0.026 -0.180
 C         -0.026  0.028 -0.002   -0.011  0.022  0.016   -0.018 -0.022 -0.010
 H          0.331 -0.278  0.167    0.255 -0.030  0.081   -0.147 -0.098 -0.008
 H         -0.136 -0.000  0.203   -0.206 -0.018 -0.099    0.237  0.022  0.214
 H          0.173 -0.126 -0.315    0.090 -0.279 -0.222   -0.009  0.317  0.091
 TransDip   0.001  0.000 -0.001    0.007 -0.006  0.004   -0.031 -0.006  0.039

 Mode:                34                     35                     36
 Frequency:      1497.11                1504.87                1601.25
 Force Cnst:      1.5528                 1.4607                 1.6359
 Red. Mass:       1.1759                 1.0947                 1.0829
 IR Active:          YES                    YES                    YES
 IR Intens:        1.159                 11.270                 86.045
 Raman Active:       YES                    YES                    YES
               X      Y      Z        X      Y      Z        X      Y      Z
 O          0.017  0.017  0.016   -0.010  0.001 -0.007   -0.001 -0.001 -0.001
 H         -0.015 -0.287 -0.062    0.007  0.147  0.031   -0.001  0.035  0.008
 O         -0.000  0.002  0.000    0.002 -0.003  0.000   -0.040  0.057 -0.013
 H          0.005 -0.009 -0.007   -0.020  0.015  0.012    0.545 -0.367 -0.252
 H         -0.002 -0.013  0.005   -0.001  0.022 -0.016    0.082 -0.540  0.446
 C         -0.081 -0.022 -0.065    0.045 -0.052  0.024    0.004 -0.002  0.003
 C          0.030 -0.021  0.019   -0.025 -0.017 -0.022   -0.001  0.000 -0.001
 H         -0.030  0.199  0.206   -0.004  0.165  0.298    0.000  0.000  0.003
 H         -0.193 -0.076 -0.160   -0.111 -0.033 -0.088    0.000  0.001  0.001
 H          0.153  0.241 -0.033    0.254  0.222 -0.037    0.002  0.000 -0.001
 C         -0.018 -0.007  0.015    0.005 -0.017  0.014   -0.000 -0.000  0.000
 H          0.052 -0.224 -0.164   -0.256  0.238 -0.201   -0.009  0.008 -0.008
 H         -0.026  0.293  0.132    0.225  0.170 -0.231    0.010  0.006 -0.011
 H          0.373  0.076  0.056   -0.138 -0.053  0.190   -0.005 -0.002  0.007
 C          0.010 -0.001 -0.022    0.018 -0.014 -0.002    0.000 -0.001 -0.001
 H         -0.106 -0.258  0.038   -0.307  0.227 -0.145   -0.014  0.009 -0.006
 H          0.145  0.025  0.355    0.154  0.014 -0.187    0.008  0.001 -0.005
 H          0.065  0.318  0.010   -0.188  0.080  0.308   -0.010  0.006  0.016
 TransDip   0.014 -0.031  0.006   -0.019  0.106  0.005    0.173 -0.236  0.054

 Mode:                37                     38                     39
 Frequency:      3044.51                3047.79                3056.89
 Force Cnst:      5.6567                 5.6704                 5.7062
 Red. Mass:       1.0358                 1.0361                 1.0364
 IR Active:          YES                    YES                    YES
 IR Intens:       21.190                 18.223                 12.617
 Raman Active:       YES                    YES                    YES
               X      Y      Z        X      Y      Z        X      Y      Z
 O          0.000 -0.000 -0.000   -0.000 -0.000 -0.000   -0.000 -0.000 -0.000
 H          0.001 -0.000 -0.001    0.003 -0.002  0.002    0.002 -0.002  0.001
 O         -0.000 -0.000  0.000   -0.000  0.000 -0.000    0.000  0.000  0.000
 H          0.000 -0.000  0.000   -0.000 -0.000  0.000   -0.000 -0.000  0.000
 H         -0.000  0.000 -0.000    0.000 -0.000 -0.000    0.000 -0.000 -0.000
 C         -0.002 -0.000  0.002    0.002  0.002  0.001   -0.002  0.001 -0.001
 C         -0.001  0.000 -0.001   -0.012  0.004 -0.008    0.038 -0.010  0.027
 H          0.011  0.007 -0.004    0.129  0.090 -0.061   -0.411 -0.283  0.189
 H          0.003 -0.014  0.000    0.044 -0.186  0.001   -0.134  0.563 -0.002
 H         -0.003  0.004  0.010   -0.037  0.051  0.157    0.112 -0.160 -0.496
 C          0.003 -0.012 -0.037    0.003 -0.009 -0.029    0.001 -0.003 -0.011
 H         -0.318 -0.215  0.133   -0.250 -0.168  0.106   -0.087 -0.058  0.037
 H          0.377 -0.093  0.265    0.292 -0.072  0.205    0.107 -0.026  0.078
 H         -0.095  0.447  0.023   -0.072  0.342  0.017   -0.025  0.115  0.006
 C          0.026  0.016 -0.008   -0.031 -0.019  0.010   -0.010 -0.005  0.003
 H         -0.061  0.103  0.313    0.075 -0.121 -0.372    0.023 -0.035 -0.111
 H          0.067 -0.368 -0.001   -0.077  0.425  0.002   -0.022  0.122  0.000
 H         -0.304  0.076 -0.225    0.355 -0.088  0.262    0.113 -0.026  0.081
 TransDip   0.080  0.013 -0.123   -0.099 -0.067 -0.067    0.081 -0.059  0.054

 Mode:                40                     41                     42
 Frequency:      3132.10                3137.93                3144.45
 Force Cnst:      6.3815                 6.4015                 6.4367
 Red. Mass:       1.1041                 1.1034                 1.1049
 IR Active:          YES                    YES                    YES
 IR Intens:        0.578                 44.241                  7.195
 Raman Active:       YES                    YES                    YES
               X      Y      Z        X      Y      Z        X      Y      Z
 O          0.000  0.000 -0.000   -0.000  0.000 -0.000   -0.000 -0.000  0.000
 H         -0.002 -0.000  0.003    0.000  0.005  0.001    0.001  0.001 -0.001
 O          0.000  0.000 -0.000    0.000 -0.000  0.000    0.000  0.000 -0.000
 H         -0.001  0.000  0.000    0.000 -0.000  0.000    0.000 -0.000  0.000
 H          0.000 -0.000  0.000   -0.000  0.000 -0.000   -0.000 -0.000 -0.000
 C         -0.000 -0.000  0.000    0.002 -0.001  0.001    0.001  0.000 -0.001
 C         -0.001  0.001  0.002    0.001  0.018  0.004   -0.016 -0.007  0.020
 H          0.006  0.004 -0.003   -0.073 -0.047  0.033    0.162  0.111 -0.071
 H          0.002 -0.008 -0.001    0.034 -0.140  0.001   -0.009  0.027  0.002
 H          0.004 -0.005 -0.019    0.018 -0.023 -0.082    0.035 -0.056 -0.166
 C          0.049 -0.047  0.022    0.040 -0.039  0.017    0.049  0.048 -0.005
 H         -0.044 -0.044  0.027   -0.035 -0.034  0.021   -0.486 -0.321  0.214
 H         -0.445  0.102 -0.321   -0.359  0.082 -0.261   -0.175  0.052 -0.132
 H         -0.101  0.507  0.034   -0.083  0.418  0.029    0.072 -0.305 -0.019
 C         -0.035  0.041 -0.026    0.041 -0.048  0.031    0.000 -0.033 -0.048
 H         -0.017  0.024  0.048    0.021 -0.029 -0.064   -0.103  0.152  0.486
 H          0.069 -0.426 -0.005   -0.081  0.503  0.005   -0.048  0.276 -0.006
 H          0.370 -0.083  0.270   -0.437  0.097 -0.316    0.143 -0.040  0.097
 TransDip   0.021 -0.011 -0.003    0.147 -0.124  0.092    0.059  0.014 -0.061

 Mode:                43                     44                     45
 Frequency:      3145.74                3152.26                3153.31
 Force Cnst:      6.4389                 6.4626                 6.4687
 Red. Mass:       1.1044                 1.1039                 1.1042
 IR Active:          YES                    YES                    YES
 IR Intens:        8.052                 48.129                 32.731
 Raman Active:       YES                    YES                    YES
               X      Y      Z        X      Y      Z        X      Y      Z
 O          0.000  0.000  0.000   -0.000  0.001 -0.000   -0.000 -0.000  0.000
 H          0.001 -0.003  0.000    0.002  0.000  0.002   -0.000 -0.000  0.000
 O         -0.000  0.000 -0.000    0.000  0.000  0.000    0.000  0.000 -0.000
 H         -0.000  0.000  0.000   -0.000 -0.000  0.000    0.000 -0.000  0.000
 H         -0.000  0.000 -0.000    0.000 -0.000 -0.000   -0.000  0.000 -0.000
 C         -0.001 -0.000 -0.001   -0.000 -0.003 -0.001    0.001  0.000 -0.002
 C          0.001  0.047  0.012   -0.006 -0.077 -0.014    0.054  0.010 -0.071
 H         -0.158 -0.099  0.074    0.306  0.195 -0.138   -0.514 -0.352  0.221
 H          0.097 -0.392  0.005   -0.160  0.638 -0.008    0.001  0.027 -0.010
 H          0.050 -0.063 -0.223   -0.068  0.088  0.311   -0.132  0.210  0.644
 C         -0.040 -0.031  0.002   -0.017 -0.031  0.006    0.013  0.011 -0.000
 H          0.360  0.239 -0.159    0.234  0.153 -0.103   -0.120 -0.080  0.055
 H          0.167 -0.048  0.126    0.025 -0.011  0.021   -0.052  0.014 -0.038
 H         -0.046  0.183  0.011   -0.053  0.235  0.016    0.016 -0.063 -0.004
 C         -0.004 -0.029 -0.055    0.006 -0.026 -0.024   -0.001 -0.010 -0.017
 H         -0.112  0.165  0.523   -0.058  0.085  0.277   -0.037  0.052  0.168
 H         -0.042  0.238 -0.008   -0.040  0.244 -0.003   -0.015  0.084 -0.003
 H          0.206 -0.054  0.140    0.025 -0.009  0.014    0.056 -0.015  0.039
 TransDip  -0.064 -0.019 -0.061   -0.031 -0.213 -0.054    0.109  0.017 -0.147

 Mode:                46                     47                     48
 Frequency:      3775.55                3866.53                3969.97
 Force Cnst:      8.9597                 9.2068                10.0536
 Red. Mass:       1.0668                 1.0452                 1.0827
 IR Active:          YES                    YES                    YES
 IR Intens:      360.994                 12.154                 95.220
 Raman Active:       YES                    YES                    YES
               X      Y      Z        X      Y      Z        X      Y      Z
 O         -0.050  0.015 -0.035    0.005 -0.002  0.003   -0.000  0.000  0.000
 H          0.791 -0.222  0.557   -0.081  0.024 -0.056   -0.000 -0.000  0.001
 O         -0.003  0.005 -0.001   -0.027  0.041 -0.008   -0.038 -0.015  0.058
 H         -0.008 -0.047  0.055   -0.098 -0.436  0.535    0.071  0.466 -0.532
 H          0.056 -0.024 -0.041    0.536 -0.208 -0.413    0.534 -0.236 -0.385
 C         -0.001  0.000 -0.001    0.000  0.000  0.000    0.000  0.000 -0.000
 C          0.000 -0.000  0.000   -0.000  0.000 -0.000    0.000  0.000 -0.000
 H         -0.000  0.000 -0.000    0.000  0.000 -0.000   -0.000 -0.000  0.000
 H          0.001 -0.003  0.001   -0.000  0.000  0.000   -0.000 -0.000  0.000
 H         -0.000  0.000  0.000    0.000  0.000  0.000   -0.000  0.000  0.000
 C          0.000 -0.000  0.000   -0.000  0.000 -0.000    0.000  0.000  0.000
 H         -0.000  0.001  0.000    0.000  0.000  0.000   -0.000 -0.000  0.000
 H         -0.002  0.000 -0.001   -0.000 -0.000  0.000   -0.000 -0.000  0.000
 H          0.001 -0.003 -0.002    0.000 -0.000  0.000   -0.000 -0.000 -0.000
 C          0.000 -0.000  0.000   -0.000  0.000 -0.000   -0.000 -0.000 -0.000
 H          0.000  0.001 -0.000    0.000 -0.000  0.000    0.000  0.000  0.000
 H         -0.002 -0.004  0.000    0.000 -0.000  0.000    0.000  0.000  0.000
 H         -0.002  0.000 -0.002   -0.000 -0.000 -0.000   -0.000  0.000  0.000
 TransDip   0.461 -0.279  0.283    0.052 -0.098  0.007    0.169  0.064 -0.255

 STANDARD THERMODYNAMIC QUANTITIES AT   298.15 K  AND     1.00 ATM

   This Molecule has  0 Imaginary Frequencies
   Zero point vibrational energy:      100.347 kcal/mol

   Atom    1 Element O  Has Mass   15.99491
   Atom    2 Element H  Has Mass    1.00783
   Atom    3 Element O  Has Mass   15.99491
   Atom    4 Element H  Has Mass    1.00783
   Atom    5 Element H  Has Mass    1.00783
   Atom    6 Element C  Has Mass   12.00000
   Atom    7 Element C  Has Mass   12.00000
   Atom    8 Element H  Has Mass    1.00783
   Atom    9 Element H  Has Mass    1.00783
   Atom   10 Element H  Has Mass    1.00783
   Atom   11 Element C  Has Mass   12.00000
   Atom   12 Element H  Has Mass    1.00783
   Atom   13 Element H  Has Mass    1.00783
   Atom   14 Element H  Has Mass    1.00783
   Atom   15 Element C  Has Mass   12.00000
   Atom   16 Element H  Has Mass    1.00783
   Atom   17 Element H  Has Mass    1.00783
   Atom   18 Element H  Has Mass    1.00783
   Molecular Mass:    92.083780 amu
   Principal axes and moments of inertia in amu*Bohr^2:
                             1           2           3
    Eigenvalues --      396.30669  1074.40906  1085.06478
          X               0.73441    -0.57325     0.36335
          Y              -0.52176    -0.13449     0.84242
          Z               0.43405     0.80827     0.39787
   Rotational Symmetry Number is   1
   The Molecule is an Asymmetric Top
   Translational Enthalpy:        0.889 kcal/mol
   Rotational Enthalpy:           0.889 kcal/mol
   Vibrational Enthalpy:        105.274 kcal/mol
   gas constant (RT):             0.592 kcal/mol
   Translational Entropy:        39.472  cal/mol.K
   Rotational Entropy:           27.626  cal/mol.K
   Vibrational Entropy:          32.888  cal/mol.K

   Total Enthalpy:              107.644 kcal/mol
   Total Entropy:                99.986  cal/mol.K

   Quasi-RRHO corrections using alpha = 4, and omega = 100 cm^-1
   QRRHO-Vib. Enthalpy:         104.341 kcal/mol
   QRRHO-Vib. Entropy:           29.606  cal/mol.K
   QRRHO-Total Enthalpy:        106.711 kcal/mol
   QRRHO-Total Entropy:          96.705  cal/mol.K
 Total job time:  2995.65s(wall), 36792.20s(cpu) 
 Wed Nov 13 03:32:56 2024

        *************************************************************
        *                                                           *
        *  Thank you very much for using Q-Chem.  Have a nice day.  *
        *                                                           *
        *************************************************************


