
Running Job 1 of 2 tBuSH_water_optfreq_wB97X-V_svpd.in
qchem tBuSH_water_optfreq_wB97X-V_svpd.in_3966797.0 /data/scratch/tBuSH_water_optfreq_wB97X-V_svpd20241116003056/ 1
/opt/qchem/6.2.0/exe/qcprog.exe_s tBuSH_water_optfreq_wB97X-V_svpd.in_3966797.0 /data/scratch/tBuSH_water_optfreq_wB97X-V_svpd20241116003056/
                  Welcome to Q-Chem
     A Quantum Leap Into The Future Of Chemistry


 Q-Chem 6.2, Q-Chem, Inc., Pleasanton, CA (2024)

 E. Epifanovsky,  A. T. B. Gilbert,  Xintian Feng,  Joonho Lee,  Yuezhi Mao,  
 N. Mardirossian,  P. Pokhilko,  A. White,  M. Wormit,  M. P. Coons,  
 A. L. Dempwolff,  Zhengting Gan,  D. Hait,  P. R. Horn,  L. D. Jacobson,  
 I. Kaliman,  J. Kussmann,  A. W. Lange,  Ka Un Lao,  D. S. Levine,  Jie Liu,  
 S. C. McKenzie,  A. F. Morrison,  K. D. Nanda,  F. Plasser,  D. R. Rehn,  
 M. L. Vidal,  Zhi-Qiang You,  Ying Zhu,  Huseyin Aksu,  B. Alam,  
 B. Albrecht,  A. Aldossary,  E. Alguire,  J. H. Andersen,  
 J. E. Arias-Martinez,  V. Athavale,  D. Barton,  K. Begam,  A. Behn,  
 N. Bellonzi,  Y. A. Bernard,  E. J. Berquist,  H. Burton,  A. Carreras,  
 K. Carter-Fenk,  Mathew Chow,  Romit Chakraborty,  Chandrima Chakravarty,  
 Junhan Chen,  A. D. Chien,  K. D. Closser,  V. Cofer-Shabica,  L. Cunha,  
 S. Dasgupta,  Jia Deng,  Joseph Dickinson,  M. de Wergifosse,  
 M. Diedenhofen,  Hainam Do,  Wenjie Dou,  S. Ehlert,  Po-Tung Fang,  
 S. Fatehi,  Qingguo Feng,  Jonathan Fetherolf,  T. Friedhoff,  
 Thomas Froitzheim,  Sarai Folkestad,  B. Ganoe,  J. Gayvert,  Qinghui Ge,  
 G. Gidofalvi,  M. Gimferrer,  M. Goldey,  Montgomery Gray,  J. Gomes,  
 C. Gonzalez-Espinoza,  S. Gulania,  A. Gunina,  J. A. Gyamfi,  
 M. W. D. Hanson-Heine,  P. H. P. Harbach,  A. W. Hauser,  M. F. Herbst,  
 M. Hernandez Vera,  M. Hodecker,  Z. C. Holden,  S. Houck,  Xunkun Huang,  
 Kerwin Hui,  B. C. Huynh,  K. Ikeda,  M. Ivanov,  Nayanthara K. Jayadev,  
 Hyunjun Ji,  Zuxin Jin,  Hanjie Jiang,  Subrata Jana,  B. Kaduk,  
 S. Kaehler,  R. Kang,  K. Khistyaev,  Jaehoon Kim,  Yongbin Kim,  
 P. Klunzinger,  Z. Koczor-Benda,  Joong Hoon Koh,  D. Kosenkov,  
 Saikiran Kotaru,  L. Koulias,  T. Kowalczyk,  C. M. Krauter,  K. Kue,  
 A. Kunitsa,  T. Kus,  A. Landau,  K. V. Lawler,  D. Lefrancois,  S. Lehtola,  
 Rain Li,  Shaozhi Li,  Tao E. Li,  Yi-Pei Li,  Jiashu Liang,  M. Liebenthal,  
 Hung-Hsuan Lin,  You-Sheng Lin,  Fenglai Liu,  Kuan-Yu Liu,  Xiao Liu,  
 M. Loipersberger,  A. Luenser,  C. Malbon,  Aniket Mandal,  Manisha,  
 A. Manjanath,  P. Manohar,  E. Mansoor,  S. F. Manzer,  Shan-Ping Mao,  
 A. V. Marenich,  T. Markovich,  S. Mason,  F. Matz,  S. A. Maurer,  
 Samuel May,  Alexandra McIsaac,  P. F. McLaughlin,  M. F. S. J. Menger,  
 J.-M. Mewes,  S. A. Mewes,  P. Morgante,  Mohammad Mostafanejad,  
 Madhubani Mukherjee,  J. W. Mullinax,  Quyen Nguyen,  Avik Kumar Ojha,  
 K. J. Oosterbaan,  Eno Paenurk,  Xiaoliang Pan,  G. Paran,  V. Parravicini,  
 Alexander C. Paul,  Suranjan K. Paul,  F. Pavosevic,  Zheng Pei,  S. Prager,  
 E. I. Proynov,  E. Ramos,  B. Rana,  A. E. Rask,  A. Rettig,  R. M. Richard,  
 F. Rob,  E. Rossomme,  T. Scheele,  M. Scheurer,  M. Schneider,  
 P. E. Schneider,  Tim K. Schramm,  N. Sergueev,  S. M. Sharada,  
 Hengyuan Shen,  W. Skomorowski,  D. W. Small,  C. J. Stein,  
 Alistair J. Sterling,  Yingli Su,  Yu-Chuan Su,  E. J. Sundstrom,  
 J. Talbot,  Zhen Tao,  J. Thirman,  Hung-Yi Tsai,  T. Tsuchimochi,  
 N. M. Tubman,  C. Utku,  S. P. Veccham,  O. Vydrov,  Rahel Weiss,  
 J. Wenzel,  Jonathan Wong,  J. Witte,  H. Wu,  Yanze Wu,  A. Yamada,  
 Chou-Hsun Yang,  Kun Yao,  S. Yeganeh,  S. R. Yost,  Qi Yu,  A. Zech,  
 F. Zeller,  Chongxiao Zhao,  Igor Ying Zhang,  Xing Zhang,  Yu Zhang,  
 D. Zuev,  A. Aspuru-Guzik,  A. T. Bell,  N. A. Besley,  K. B. Bravaya,  
 B. R. Brooks,  D. Casanova,  Jeng-Da Chai,  Hsing-Ta Chen,  S. Coriani,  
 C. J. Cramer,  A. E. DePrince, III,  R. A. DiStasio Jr.,  A. Dreuw,  
 B. D. Dunietz,  T. R. Furlani,  W. A. Goddard III,  S. Grimme,  
 S. Hammes-Schiffer,  T. Head-Gordon,  W. J. Hehre,  Chao-Ping Hsu,  
 T.-C. Jagau,  Yousung Jung,  A. Klamt,  Jing Kong,  D. S. Lambrecht,  
 Xiangyuan Li,  WanZhen Liang,  N. J. Mayhall,  C. W. McCurdy,  J. B. Neaton,  
 T. Neudecker,  C. Ochsenfeld,  J. A. Parkhill,  R. Peverati,  
 V. A. Rassolov,  Haisheng Ren,  Yihan Shao,  L. V. Slipchenko,  
 R. P. Steele,  J. E. Subotnik,  A. J. W. Thom,  A. Tkatchenko,  
 D. G. Truhlar,  T. Van Voorhis,  Fan Wang,  T. A. Wesolowski,  K. B. Whaley,  
 H. L. Woodcock III,  P. M. Zimmerman,  S. Faraji,  P. M. W. Gill,  
 M. Head-Gordon,  J. M. Herbert,  A. I. Krylov

 Contributors to earlier versions of Q-Chem not listed above: 
 R. D. Adamson,  B. Austin,  R. Baer,  J. Baker,  G. J. O. Beran,  
 K. Brandhorst,  S. T. Brown,  E. F. C. Byrd,  Arup K. Chakraborty,  
 G. K. L. Chan,  Chun-Min Chang,  Yunqing Chen,  C.-L. Cheng,  
 Siu Hung Chien,  D. M. Chipman,  D. L. Crittenden,  H. Dachsel,  
 R. J. Doerksen,  A. D. Dutoi,  R. G. Edgar,  J. Fosso-Tande,  
 L. Fusti-Molnar,  D. Ghosh,  A. Ghysels,  A. Golubeva-Zadorozhnaya,  
 J. Gonthier,  M. S. Gordon,  S. R. Gwaltney,  G. Hawkins,  J. E. Herr,  
 A. Heyden,  S. Hirata,  E. G. Hohenstein,  G. Kedziora,  F. J. Keil,  
 C. Kelley,  Jihan Kim,  R. A. King,  R. Z. Khaliullin,  P. P. Korambath,  
 W. Kurlancheek,  A. Laurent,  A. M. Lee,  M. S. Lee,  S. V. Levchenko,  
 Ching Yeh Lin,  D. Liotard,  E. Livshits,  R. C. Lochan,  I. Lotan,  
 L. A. Martinez-Martinez,  P. E. Maslen,  N. Nair,  D. P. O'Neill,  
 D. Neuhauser,  E. Neuscamman,  C. M. Oana,  R. Olivares-Amaya,  R. Olson,  
 T. M. Perrine,  B. Peters,  P. A. Pieniazek,  A. Prociuk,  Y. M. Rhee,  
 J. Ritchie,  M. A. Rohrdanz,  E. Rosta,  N. J. Russ,  H. F. Schaefer III,  
 M. W. Schmidt,  N. E. Schultz,  S. Sharma,  N. Shenvi,  C. D. Sherrill,  
 A. C. Simmonett,  A. Sodt,  T. Stein,  D. Stuck,  K. S. Thanthiriwatte,  
 V. Vanovschi,  L. Vogt,  Tao Wang,  A. Warshel,  M. A. Watson,  
 C. F. Williams,  Q. Wu,  X. Xu,  Jun Yang,  W. Zhang,  Yan Zhao

   Please cite Q-Chem as follows:
  "Software for the frontiers of quantum chemistry:
   An overview of developments in the Q-Chem 5 package"
   J. Chem. Phys. 155, 084801 (2021)
   https://doi.org/10.1063/5.0055522 (open access)

 Q-Chem 6.2.0 for Intel X86 EM64T Linux

 Parts of Q-Chem use Armadillo 9.900.5 (Nocturnal Misbehaviour).
 http://arma.sourceforge.net/

 Q-Chem begins on Sat Nov 16 00:30:57 2024  

 Host: 
0

     Scratch files written to /data/scratch/tBuSH_water_optfreq_wB97X-V_svpd20241116003056//
 May224 |scratch|qcdevops|jenkins|workspace|build_RNUM -1
 Processing $rem in /opt/qchem/6.2.0/config/preferences:
 Processing $rem in /home/ymao/.qchemrc:

 Checking the input file for inconsistencies... 	...done.

--------------------------------------------------------------
User input:
--------------------------------------------------------------
$molecule
0 1
S          1.07774        1.17696        0.00000
H         -0.27036        1.18433        0.00000
C          1.26826       -0.62865        0.00000
O         -2.21652       -0.10130        0.00000
H         -2.79879       -0.11482        0.76674
H         -2.79879       -0.11482       -0.76674
C          2.83894       -0.93354        0.00000
H          3.20985       -1.86471       -0.37451
H          3.49292       -0.40646       -0.66287
H          3.04218       -0.76786        1.03738
C          0.61660       -1.28179        1.30719
H          1.03396       -1.09052        2.27368
H         -0.34077       -0.95515        1.65598
H          0.64706       -2.31038        1.01399
C          0.61660       -1.28179       -1.30719
H         -0.01487       -2.14172       -1.22557
H         -0.15334       -0.76729       -1.84328
H          1.50846       -1.44704       -1.87479
$end

$rem
JOBTYPE  OPT
METHOD  WB97X-V
BASIS  DEF2-SVPD
SYMMETRY  FALSE
SYM_IGNORE  TRUE
MEM_TOTAL  8000
MEM_STATIC  2000
BASIS_LIN_DEP_THRESH  6
THRESH  14
SCF_CONVERGENCE  8
FD_MAT_VEC_PROD  FALSE
XC_GRID  000099000590
NL_GRID  1
MAX_SCF_CYCLES  200
GEOM_OPT_MAX_CYCLES  200
GEOM_OPT_DRIVER  OPTIMIZE
GEOM_OPT_TOL_GRADIENT  100
GEOM_OPT_TOL_DISPLACEMENT  100
GEOM_OPT_TOL_ENERGY  10
$end

--------------------------------------------------------------
 ----------------------------------------------------------------
             Standard Nuclear Orientation (Angstroms)
    I     Atom           X                Y                Z
 ----------------------------------------------------------------
    1      S       1.0777400000     1.1769600000     0.0000000000
    2      H      -0.2703600000     1.1843300000     0.0000000000
    3      C       1.2682600000    -0.6286500000     0.0000000000
    4      O      -2.2165200000    -0.1013000000     0.0000000000
    5      H      -2.7987900000    -0.1148200000     0.7667400000
    6      H      -2.7987900000    -0.1148200000    -0.7667400000
    7      C       2.8389400000    -0.9335400000     0.0000000000
    8      H       3.2098500000    -1.8647100000    -0.3745100000
    9      H       3.4929200000    -0.4064600000    -0.6628700000
   10      H       3.0421800000    -0.7678600000     1.0373800000
   11      C       0.6166000000    -1.2817900000     1.3071900000
   12      H       1.0339600000    -1.0905200000     2.2736800000
   13      H      -0.3407700000    -0.9551500000     1.6559800000
   14      H       0.6470600000    -2.3103800000     1.0139900000
   15      C       0.6166000000    -1.2817900000    -1.3071900000
   16      H      -0.0148700000    -2.1417200000    -1.2255700000
   17      H      -0.1533400000    -0.7672900000    -1.8432800000
   18      H       1.5084600000    -1.4470400000    -1.8747900000
 ----------------------------------------------------------------
 Nuclear Repulsion Energy =         320.68721113 hartrees
 There are       30 alpha and       30 beta electrons
 Requested basis set is def2-SVPD
 There are 100 shells and 226 basis functions

 Total QAlloc Memory Limit   8000 MB
 Mega-Array Size      1956 MB
 MEM_STATIC part      2000 MB

 A cutoff of  1.0D-14 yielded   4931 shell pairs
 There are     25353 function pairs (     28155 Cartesian)
 Smallest overlap matrix eigenvalue = 8.37E-05

 Scale SEOQF with 1.000000e-01/1.000000e-01/1.000000e-01

 Standard Electronic Orientation quadrupole field applied
 Nucleus-field energy     =     0.0000000068 hartrees
 Guess from superposition of atomic densities
 Warning:  Energy on first SCF cycle will be non-variational
 SAD guess density has 60.000000 electrons

 -----------------------------------------------------------------------
  General SCF calculation program by
  Eric Jon Sundstrom, Paul Horn, Yuezhi Mao, Dmitri Zuev, Alec White,
  David Stuck, Shaama M.S., Shane Yost, Joonho Lee, David Small,
  Daniel Levine, Susi Lehtola, Hugh Burton, Evgeny Epifanovsky,
  Bang C. Huynh
 -----------------------------------------------------------------------
 Exchange:     0.1670 Hartree-Fock + 1.0000 wB97X-V + LR-HF
 Correlation:  1.0000 wB97X-V
 Using Euler-Maclaurin-Lebedev (99,590) quadrature formula
 Nonlocal Correlation:  VV10 with C = 0.0100 and b = 6.00 and scale = 1.00000
 Grid used for NLC:  SG-1 standard quadrature
 using 16 threads for integral computing
 -------------------------------------------------------
 OpenMP Integral computing Module                
 Release: version 1.0, May 2013, Q-Chem Inc. Pittsburgh 
 -------------------------------------------------------
 A restricted SCF calculation will be
 performed using DIIS
 SCF converges when DIIS error is below 1.0e-08
 ---------------------------------------
  Cycle       Energy         DIIS error
 ---------------------------------------
    1    -633.6621490503      3.52e-02  
    2    -632.5049810112      4.12e-03  
    3    -632.5463717526      3.60e-03  
    4    -632.6077541491      4.21e-04  
    5    -632.6087137664      1.53e-04  
    6    -632.6088803723      3.06e-05  
    7    -632.6088887050      8.18e-06  
    8    -632.6088894774      3.74e-06  
    9    -632.6088896045      9.80e-07  
   10    -632.6088896147      3.22e-07  
   11    -632.6088896159      4.48e-08  
   12    -632.6088896160      1.21e-08  
   13    -632.6088896160      4.02e-09  Convergence criterion met
 ---------------------------------------
 SCF time:   CPU 843.53s  wall 53.00s 
 SCF   energy =  -632.60888962
 Total energy =  -632.60888962
 
 --------------------------------------------------------------
 
                    Orbital Energies (a.u.)
 --------------------------------------------------------------
 
 Alpha MOs
 -- Occupied --
-88.8281 -19.2527 -10.3371 -10.2719 -10.2653 -10.2647  -8.0213  -5.9837
 -5.9796  -5.9731  -1.1491  -0.9419  -0.8222  -0.8132  -0.8108  -0.6675
 -0.6660  -0.5746  -0.5676  -0.5434  -0.5257  -0.5005  -0.4760  -0.4658
 -0.4543  -0.4432  -0.4374  -0.4191  -0.3922  -0.3163
 -- Virtual --
  0.0544   0.0927   0.0984   0.1071   0.1205   0.1324   0.1342   0.1366
  0.1412   0.1635   0.1692   0.1753   0.1858   0.1876   0.1958   0.2052
  0.2085   0.2204   0.2393   0.2418   0.2582   0.2662   0.2756   0.2788
  0.2906   0.2985   0.3030   0.3041   0.3147   0.3235   0.3318   0.3452
  0.3471   0.3565   0.3687   0.3772   0.3860   0.3995   0.4039   0.4142
  0.4177   0.4215   0.4254   0.4293   0.4347   0.4419   0.4451   0.4460
  0.4549   0.4629   0.4679   0.4755   0.4857   0.4887   0.4944   0.4995
  0.5061   0.5138   0.5238   0.5267   0.5329   0.5443   0.5457   0.5562
  0.5611   0.5654   0.5679   0.5767   0.5886   0.5932   0.6022   0.6161
  0.6212   0.6273   0.6291   0.6490   0.6605   0.6643   0.6678   0.6811
  0.6967   0.6991   0.7007   0.7253   0.7339   0.7473   0.7560   0.7725
  0.7770   0.7979   0.8043   0.8405   0.8523   0.8710   0.9198   0.9598
  0.9885   1.0008   1.0054   1.0292   1.0491   1.0783   1.0924   1.1046
  1.1111   1.1124   1.1287   1.1382   1.1480   1.1531   1.1714   1.1818
  1.1975   1.2122   1.2311   1.2345   1.2464   1.2658   1.3038   1.3429
  1.3761   1.3946   1.4114   1.4292   1.4592   1.4752   1.5073   1.5343
  1.5584   1.5609   1.5892   1.6255   1.6615   1.7182   1.7430   1.7837
  1.7909   1.8060   1.8100   1.8372   1.8445   1.8620   1.8832   1.9028
  1.9112   1.9177   1.9410   1.9679   1.9972   2.0267   2.0426   2.0502
  2.0729   2.0898   2.1273   2.1485   2.1903   2.2128   2.2548   2.2670
  2.2876   2.3153   2.3400   2.3643   2.3878   2.4064   2.4102   2.4336
  2.4572   2.4753   2.5006   2.5227   2.5575   2.6304   2.6426   2.6576
  2.6742   2.7533   2.7592   2.7874   2.9152   2.9447   3.0549   3.0889
  3.1398   3.1494   3.1540   3.2759   3.2879   3.3122   3.3200   3.3385
  3.3457   3.3725   3.7544   4.1431
 --------------------------------------------------------------
 
          Ground-State Mulliken Net Atomic Charges

     Atom                 Charge (a.u.)
  ----------------------------------------
      1 S                    -0.282635
      2 H                     0.292041
      3 C                    -2.086072
      4 O                    -0.232543
      5 H                     0.135264
      6 H                     0.118795
      7 C                     1.098400
      8 H                    -0.147296
      9 H                    -0.217885
     10 H                     0.021532
     11 C                     1.114486
     12 H                    -0.085772
     13 H                    -0.518568
     14 H                     0.156036
     15 C                     1.007090
     16 H                    -0.176450
     17 H                    -0.161473
     18 H                    -0.034950
  ----------------------------------------
  Sum of atomic charges =     0.000000

 -----------------------------------------------------------------
                    Cartesian Multipole Moments
 -----------------------------------------------------------------
    Charge (ESU x 10^10)
                 0.0000
    Dipole Moment (Debye)
         X      -3.1446      Y      -1.6969      Z      -0.0240
       Tot       3.5733
    Quadrupole Moments (Debye-Ang)
        XX     -37.3212     XY      -3.1431     YY     -51.7498
        XZ      -0.7835     YZ       0.7071     ZZ     -47.1582
    Octopole Moments (Debye-Ang^2)
       XXX    -135.2146    XXY       7.1141    XYY     -39.2477
       YYY      44.8653    XXZ      -5.1376    XYZ       1.4011
       YYZ      -1.8717    XZZ     -44.7608    YZZ      11.6243
       ZZZ       3.8834
    Hexadecapole Moments (Debye-Ang^3)
      XXXX    -710.6931   XXXY      45.5373   XXYY    -220.4565
      XYYY      52.5634   YYYY    -414.5760   XXXZ     -19.1613
      XXYZ       7.2260   XYYZ      -2.3577   YYYZ       2.2692
      XXZZ    -164.5542   XYZZ      17.2972   YYZZ    -120.3459
      XZZZ       3.5898   YZZZ      -2.4894   ZZZZ    -256.3682
 -----------------------------------------------------------------
 Calculating analytic gradient of the SCF energy
 Gradient of SCF Energy
            1           2           3           4           5           6
    1  -0.0041157   0.0000064   0.0147814   0.0014737   0.0000681   0.0002900
    2  -0.0080180   0.0011206   0.0259850   0.0004686  -0.0001354  -0.0006288
    3   0.0010535  -0.0006118   0.0005793   0.0009240   0.0004116  -0.0004761
            7           8           9          10          11          12
    1   0.0394043   0.0146397  -0.0007507  -0.0242804  -0.0182092  -0.0395129
    2  -0.0107773   0.0386422  -0.0399332   0.0000262  -0.0146928  -0.0002238
    3  -0.0085720  -0.0083670   0.0088727  -0.0157059   0.0316445  -0.0118388
           13          14          15          16          17          18
    1   0.0327872   0.0064486  -0.0146609  -0.0063437   0.0008923  -0.0029185
    2  -0.0056422   0.0251746  -0.0181865   0.0345150  -0.0373777   0.0096836
    3   0.0235811  -0.0118760  -0.0262692  -0.0214255   0.0106562   0.0274192
 Max gradient component =       3.993E-02
 RMS gradient           =       1.827E-02
 Gradient time:  CPU 159.11 s  wall 10.11 s
 Geometry Optimization Parameters
   NAtoms,    NIC,     NZ,  NCons,   NDum,   NFix, NCnnct, MaxDiis
       18     115       0       0       0       0       0       0


** GEOMETRY OPTIMIZATION IN DELOCALIZED INTERNAL COORDINATES **
   Searching for a Minimum

   Optimization Cycle:   1

                       Coordinates (Angstroms)
     ATOM                X               Y               Z
      1  S         1.0777400000    1.1769600000    0.0000000000
      2  H        -0.2703600000    1.1843300000    0.0000000000
      3  C         1.2682600000   -0.6286500000    0.0000000000
      4  O        -2.2165200000   -0.1013000000    0.0000000000
      5  H        -2.7987900000   -0.1148200000    0.7667400000
      6  H        -2.7987900000   -0.1148200000   -0.7667400000
      7  C         2.8389400000   -0.9335400000    0.0000000000
      8  H         3.2098500000   -1.8647100000   -0.3745100000
      9  H         3.4929200000   -0.4064600000   -0.6628700000
     10  H         3.0421800000   -0.7678600000    1.0373800000
     11  C         0.6166000000   -1.2817900000    1.3071900000
     12  H         1.0339600000   -1.0905200000    2.2736800000
     13  H        -0.3407700000   -0.9551500000    1.6559800000
     14  H         0.6470600000   -2.3103800000    1.0139900000
     15  C         0.6166000000   -1.2817900000   -1.3071900000
     16  H        -0.0148700000   -2.1417200000   -1.2255700000
     17  H        -0.1533400000   -0.7672900000   -1.8432800000
     18  H         1.5084600000   -1.4470400000   -1.8747900000
   Point Group: c1    Number of degrees of freedom:    48


   Energy is   -632.608889616


 Attempting to generate delocalized internal coordinates
 Initial Hessian constructed with Jon Baker's OPTIMIZE code

 48 Hessian modes will be used to form the next step
  Hessian Eigenvalues:
     0.002000    0.002000    0.002000    0.002000    0.002000    0.002000
     0.025992    0.033916    0.043979    0.043979    0.043980    0.048105
     0.053412    0.053413    0.053413    0.054074    0.061266    0.157342
     0.159967    0.160000    0.160000    0.160000    0.160000    0.160000
     0.160000    0.160000    0.160000    0.160000    0.160000    0.160000
     0.160000    0.160000    0.238019    0.238019    0.238020    0.249228
     0.257831    0.372293    0.372295    0.372295    0.372298    0.372301
     0.372304    0.372306    0.372306    0.372315    0.548615    0.548615

 Minimum search - taking simple RFO step
 Searching for Lamda that Minimizes Along All modes
 Value Taken    Lamda =  -0.07392692
 Calculated Step too Large.  Step scaled by  0.552292
 Step Taken.  Stepsize is  0.300000

                             Maximum     Tolerance    Cnvgd?
         Gradient           0.067135      0.000100      NO
         Displacement       0.117198      0.000100      NO
         Energy change     *********      0.000000      NO


 New Cartesian Coordinates Obtained by Inverse Iteration

 Displacement from previous Coordinates is:  0.524575
 ----------------------------------------------------------------
             Standard Nuclear Orientation (Angstroms)
    I     Atom           X                Y                Z
 ----------------------------------------------------------------
    1      S       1.0714232678     1.1597338137     0.0175764745
    2      H      -0.2782250432     1.1716200875     0.0078441757
    3      C       1.2748264720    -0.6507415013     0.0088063397
    4      O      -2.2508106999    -0.0796597192    -0.0394859013
    5      H      -2.8385135677    -0.1017577350     0.7227268756
    6      H      -2.8291933506    -0.0575896765    -0.8088395142
    7      C       2.8218505616    -0.9249215224     0.0187245762
    8      H       3.1480989689    -1.8889861510    -0.3623918168
    9      H       3.4253024313    -0.3358595906    -0.6668062858
   10      H       3.0929172570    -0.7689351620     1.0555822814
   11      C       0.6544494623    -1.3105877328     1.2919623626
   12      H       1.1357607153    -1.0830917460     2.2398020442
   13      H      -0.3288486977    -0.9623753357     1.5915789629
   14      H       0.6735412571    -2.3673767417     1.0531957770
   15      C       0.6307627054    -1.2883898596    -1.2847984349
   16      H       0.0203201514    -2.1759098259    -1.1406868457
   17      H      -0.1481121883    -0.7151257183    -1.7782084081
   18      H       1.4835802973    -1.4665958831    -1.9265726629
 ----------------------------------------------------------------
 Nuclear Repulsion Energy =         321.34713287 hartrees
 There are       30 alpha and       30 beta electrons
 Applying Cartesian multipole field
    Component          Value
    ---------          -----
     (2,0,0)        1.00000E-11
     (0,2,0)        2.00000E-11
     (0,0,2)       -3.00000E-11
 Nucleus-field energy     =     0.0000000069 hartrees
 Requested basis set is def2-SVPD
 There are 100 shells and 226 basis functions
 A cutoff of  1.0D-14 yielded   4928 shell pairs
 There are     25334 function pairs (     28133 Cartesian)
 Smallest overlap matrix eigenvalue = 8.25E-05
 Guess MOs from SCF MO coefficient file

 -----------------------------------------------------------------------
  General SCF calculation program by
  Eric Jon Sundstrom, Paul Horn, Yuezhi Mao, Dmitri Zuev, Alec White,
  David Stuck, Shaama M.S., Shane Yost, Joonho Lee, David Small,
  Daniel Levine, Susi Lehtola, Hugh Burton, Evgeny Epifanovsky,
  Bang C. Huynh
 -----------------------------------------------------------------------
 Exchange:     0.1670 Hartree-Fock + 1.0000 wB97X-V + LR-HF
 Correlation:  1.0000 wB97X-V
 Using Euler-Maclaurin-Lebedev (99,590) quadrature formula
 Nonlocal Correlation:  VV10 with C = 0.0100 and b = 6.00 and scale = 1.00000
 Grid used for NLC:  SG-1 standard quadrature
 A restricted SCF calculation will be
 performed using DIIS
 SCF converges when DIIS error is below 1.0e-08
 ---------------------------------------
  Cycle       Energy         DIIS error
 ---------------------------------------
    1    -632.6351962954      1.35e-03  
    2    -632.6417419427      1.65e-04  
    3    -632.6420313069      8.26e-05  
    4    -632.6420756426      3.28e-05  
    5    -632.6420845833      6.68e-06  
    6    -632.6420849569      1.67e-06  
    7    -632.6420849937      4.92e-07  
    8    -632.6420849970      1.29e-07  
    9    -632.6420849974      5.94e-08  
   10    -632.6420849975      2.46e-08  
   11    -632.6420849975      8.94e-09  Convergence criterion met
 ---------------------------------------
 SCF time:   CPU 719.88s  wall 45.00s 
 SCF   energy =  -632.64208500
 Total energy =  -632.64208500
 
 --------------------------------------------------------------
 
                    Orbital Energies (a.u.)
 --------------------------------------------------------------
 
 Alpha MOs
 -- Occupied --
-88.8284 -19.2532 -10.3294 -10.2739 -10.2685 -10.2680  -8.0215  -5.9839
 -5.9798  -5.9734  -1.1496  -0.9467  -0.8206  -0.8090  -0.8067  -0.6677
 -0.6577  -0.5677  -0.5623  -0.5445  -0.5241  -0.5046  -0.4821  -0.4674
 -0.4556  -0.4419  -0.4394  -0.4231  -0.3939  -0.3184
 -- Virtual --
  0.0544   0.0923   0.0981   0.1081   0.1201   0.1330   0.1347   0.1365
  0.1412   0.1621   0.1728   0.1765   0.1844   0.1882   0.1955   0.2025
  0.2103   0.2201   0.2377   0.2438   0.2587   0.2649   0.2773   0.2838
  0.2902   0.2996   0.3029   0.3077   0.3104   0.3252   0.3320   0.3441
  0.3514   0.3599   0.3676   0.3787   0.3891   0.3975   0.4047   0.4136
  0.4170   0.4206   0.4256   0.4267   0.4344   0.4426   0.4444   0.4500
  0.4526   0.4618   0.4689   0.4723   0.4847   0.4893   0.4937   0.5033
  0.5056   0.5139   0.5239   0.5273   0.5302   0.5434   0.5456   0.5569
  0.5636   0.5693   0.5714   0.5771   0.5925   0.5986   0.6054   0.6138
  0.6205   0.6290   0.6319   0.6468   0.6579   0.6640   0.6678   0.6824
  0.6957   0.6970   0.6996   0.7198   0.7364   0.7403   0.7558   0.7686
  0.7721   0.7948   0.7980   0.8375   0.8504   0.8653   0.9184   0.9509
  0.9813   0.9982   1.0087   1.0279   1.0374   1.0769   1.0897   1.1047
  1.1064   1.1109   1.1243   1.1352   1.1442   1.1517   1.1671   1.1737
  1.1932   1.2102   1.2348   1.2382   1.2530   1.2758   1.3027   1.3395
  1.3897   1.3990   1.4121   1.4392   1.4623   1.4867   1.5058   1.5311
  1.5480   1.5562   1.5891   1.6214   1.6582   1.7239   1.7568   1.7810
  1.7967   1.8056   1.8205   1.8323   1.8511   1.8617   1.8780   1.8925
  1.9279   1.9382   1.9519   1.9691   1.9962   2.0257   2.0350   2.0444
  2.0789   2.0888   2.1288   2.1390   2.1689   2.2034   2.2356   2.2450
  2.2645   2.2882   2.3105   2.3575   2.3885   2.4020   2.4103   2.4401
  2.4521   2.4848   2.4902   2.5182   2.5485   2.6333   2.6376   2.6477
  2.6801   2.7372   2.7456   2.7738   2.8871   2.9059   3.0228   3.1036
  3.1251   3.1481   3.1518   3.2501   3.2558   3.2834   3.3016   3.3148
  3.3352   3.3482   3.7527   4.1433
 --------------------------------------------------------------
 
          Ground-State Mulliken Net Atomic Charges

     Atom                 Charge (a.u.)
  ----------------------------------------
      1 S                    -0.280860
      2 H                     0.295488
      3 C                    -2.274545
      4 O                    -0.222508
      5 H                     0.130135
      6 H                     0.114983
      7 C                     0.982506
      8 H                    -0.060977
      9 H                    -0.121844
     10 H                     0.008117
     11 C                     1.007061
     12 H                    -0.015565
     13 H                    -0.406375
     14 H                     0.155238
     15 C                     0.882665
     16 H                    -0.078105
     17 H                    -0.079678
     18 H                    -0.035736
  ----------------------------------------
  Sum of atomic charges =     0.000000

 -----------------------------------------------------------------
                    Cartesian Multipole Moments
 -----------------------------------------------------------------
    Charge (ESU x 10^10)
                -0.0000
    Dipole Moment (Debye)
         X      -3.1424      Y      -1.6434      Z      -0.0712
       Tot       3.5469
    Quadrupole Moments (Debye-Ang)
        XX     -37.5856     XY      -3.2736     YY     -51.4636
        XZ      -0.4435     YZ       0.3640     ZZ     -47.5000
    Octopole Moments (Debye-Ang^2)
       XXX    -139.1964    XXY       9.2885    XYY     -38.6855
       YYY      44.8653    XXZ      -4.1952    XYZ       1.2876
       YYZ      -1.6836    XZZ     -43.9948    YZZ      12.6001
       ZZZ       1.7705
    Hexadecapole Moments (Debye-Ang^3)
      XXXX    -723.3135   XXXY      52.8909   XXYY    -222.3314
      XYYY      55.0613   YYYY    -413.0433   XXXZ     -16.8476
      XXYZ       4.5701   XYYZ      -4.0905   YYYZ       2.0789
      XXZZ    -163.3043   XYZZ      17.3161   YYZZ    -120.2077
      XZZZ      -0.8211   YZZZ      -1.4150   ZZZZ    -254.3570
 -----------------------------------------------------------------
 Calculating analytic gradient of the SCF energy
 Gradient of SCF Energy
            1           2           3           4           5           6
    1  -0.0024782  -0.0006992   0.0093871   0.0012264   0.0000472   0.0001035
    2  -0.0065961   0.0014351   0.0209926   0.0004812  -0.0001970  -0.0004578
    3  -0.0005005  -0.0005494   0.0009496   0.0005339   0.0001258  -0.0002317
            7           8           9          10          11          12
    1   0.0189380   0.0113527   0.0027110  -0.0169524  -0.0069768  -0.0235038
    2  -0.0058808   0.0207810  -0.0232286   0.0002428  -0.0141754   0.0015121
    3   0.0008758  -0.0094896   0.0012480  -0.0062225   0.0129417  -0.0017383
           13          14          15          16          17          18
    1   0.0177245   0.0042147  -0.0022878  -0.0096736  -0.0042714   0.0011381
    2   0.0004503   0.0135618  -0.0119820   0.0188071  -0.0215861   0.0058397
    3   0.0177478  -0.0102045  -0.0151470  -0.0126778   0.0048082   0.0175306
 Max gradient component =       2.350E-02
 RMS gradient           =       1.076E-02
 Gradient time:  CPU 158.46 s  wall 10.07 s
 Geometry Optimization Parameters
   NAtoms,    NIC,     NZ,  NCons,   NDum,   NFix, NCnnct, MaxDiis
       18     115       0       0       0       0       0       0

 Cartesian Hessian Update
 Hessian updated using BFGS update


** GEOMETRY OPTIMIZATION IN DELOCALIZED INTERNAL COORDINATES **
   Searching for a Minimum

   Optimization Cycle:   2

                       Coordinates (Angstroms)
     ATOM                X               Y               Z
      1  S         1.0714232678    1.1597338137    0.0175764745
      2  H        -0.2782250432    1.1716200875    0.0078441757
      3  C         1.2748264720   -0.6507415013    0.0088063397
      4  O        -2.2508106999   -0.0796597192   -0.0394859013
      5  H        -2.8385135677   -0.1017577350    0.7227268756
      6  H        -2.8291933506   -0.0575896765   -0.8088395142
      7  C         2.8218505616   -0.9249215224    0.0187245762
      8  H         3.1480989689   -1.8889861510   -0.3623918168
      9  H         3.4253024313   -0.3358595906   -0.6668062858
     10  H         3.0929172570   -0.7689351620    1.0555822814
     11  C         0.6544494623   -1.3105877328    1.2919623626
     12  H         1.1357607153   -1.0830917460    2.2398020442
     13  H        -0.3288486977   -0.9623753357    1.5915789629
     14  H         0.6735412571   -2.3673767417    1.0531957770
     15  C         0.6307627054   -1.2883898596   -1.2847984349
     16  H         0.0203201514   -2.1759098259   -1.1406868457
     17  H        -0.1481121883   -0.7151257183   -1.7782084081
     18  H         1.4835802973   -1.4665958831   -1.9265726629
   Point Group: c1    Number of degrees of freedom:    48


   Energy is   -632.642084997

 Hessian updated using BFGS update

 33 Hessian modes will be used to form the next step
  Hessian Eigenvalues:
     0.001993    0.002013    0.025995    0.033917    0.043633    0.043979
     0.043998    0.047934    0.053411    0.053413    0.053420    0.054157
     0.061323    0.135746    0.158792    0.159968    0.168485    0.236467
     0.238019    0.240455    0.249112    0.257891    0.371330    0.372295
     0.372296    0.372297    0.372300    0.372302    0.372306    0.372312
     0.399543    0.548614    0.548617

 Minimum search - taking simple RFO step
 Searching for Lamda that Minimizes Along All modes
 Value Taken    Lamda =  -0.03852916
 Calculated Step too Large.  Step scaled by  0.616209
 Step Taken.  Stepsize is  0.300000

                             Maximum     Tolerance    Cnvgd?
         Gradient           0.034311      0.000100      NO
         Displacement       0.111853      0.000100      NO
         Energy change     -0.033195      0.000000      NO


 New Cartesian Coordinates Obtained by Inverse Iteration

 Displacement from previous Coordinates is:  0.446460
 ----------------------------------------------------------------
             Standard Nuclear Orientation (Angstroms)
    I     Atom           X                Y                Z
 ----------------------------------------------------------------
    1      S       1.0711162736     1.1445532201     0.0288594441
    2      H      -0.2788162848     1.1510370991     0.0188366988
    3      C       1.2820864452    -0.6727910891     0.0091174134
    4      O      -2.2722834386    -0.0761217641    -0.0279224142
    5      H      -2.8606977881    -0.0863610688     0.7340000045
    6      H      -2.8503559631    -0.0429038541    -0.7970204537
    7      C       2.8124304649    -0.9223997520     0.0322053750
    8      H       3.0883028336    -1.9160866233    -0.3348292143
    9      H       3.3685884882    -0.2897508614    -0.6673430767
   10      H       3.1584204046    -0.7704921946     1.0558063279
   11      C       0.6520526248    -1.3189053177     1.2668103511
   12      H       1.1673731059    -1.0536586468     2.1952738112
   13      H      -0.3561517831    -0.9573310712     1.4851357874
   14      H       0.6580463342    -2.3994816095     1.1053909834
   15      C       0.6620812505    -1.2898445018    -1.2817190492
   16      H       0.0845977795    -2.2006076245    -1.0949861960
   17      H      -0.1050765470    -0.6657934007    -1.7454738796
   18      H       1.4774157997    -1.4796109397    -1.9821319132
 ----------------------------------------------------------------
 Nuclear Repulsion Energy =         322.24091877 hartrees
 There are       30 alpha and       30 beta electrons
 Applying Cartesian multipole field
    Component          Value
    ---------          -----
     (2,0,0)        1.00000E-11
     (0,2,0)        2.00000E-11
     (0,0,2)       -3.00000E-11
 Nucleus-field energy     =     0.0000000071 hartrees
 Requested basis set is def2-SVPD
 There are 100 shells and 226 basis functions
 A cutoff of  1.0D-14 yielded   4925 shell pairs
 There are     25317 function pairs (     28115 Cartesian)
 Smallest overlap matrix eigenvalue = 7.68E-05
 Guess MOs from SCF MO coefficient file

 -----------------------------------------------------------------------
  General SCF calculation program by
  Eric Jon Sundstrom, Paul Horn, Yuezhi Mao, Dmitri Zuev, Alec White,
  David Stuck, Shaama M.S., Shane Yost, Joonho Lee, David Small,
  Daniel Levine, Susi Lehtola, Hugh Burton, Evgeny Epifanovsky,
  Bang C. Huynh
 -----------------------------------------------------------------------
 Exchange:     0.1670 Hartree-Fock + 1.0000 wB97X-V + LR-HF
 Correlation:  1.0000 wB97X-V
 Using Euler-Maclaurin-Lebedev (99,590) quadrature formula
 Nonlocal Correlation:  VV10 with C = 0.0100 and b = 6.00 and scale = 1.00000
 Grid used for NLC:  SG-1 standard quadrature
 A restricted SCF calculation will be
 performed using DIIS
 SCF converges when DIIS error is below 1.0e-08
 ---------------------------------------
  Cycle       Energy         DIIS error
 ---------------------------------------
    1    -632.6542786268      1.28e-03  
    2    -632.6598170209      1.41e-04  
    3    -632.6600637431      6.54e-05  
    4    -632.6600923855      3.20e-05  
    5    -632.6601006211      4.59e-06  
    6    -632.6601007964      1.63e-06  
    7    -632.6601008212      3.48e-07  
    8    -632.6601008221      1.55e-07  
    9    -632.6601008222      3.61e-08  
   10    -632.6601008223      7.58e-09  Convergence criterion met
 ---------------------------------------
 SCF time:   CPU 652.98s  wall 41.00s 
 SCF   energy =  -632.66010082
 Total energy =  -632.66010082
 
 --------------------------------------------------------------
 
                    Orbital Energies (a.u.)
 --------------------------------------------------------------
 
 Alpha MOs
 -- Occupied --
-88.8283 -19.2536 -10.3238 -10.2744 -10.2693 -10.2691  -8.0214  -5.9837
 -5.9797  -5.9733  -1.1501  -0.9511  -0.8196  -0.8078  -0.8054  -0.6680
 -0.6529  -0.5654  -0.5559  -0.5469  -0.5237  -0.5074  -0.4892  -0.4667
 -0.4578  -0.4415  -0.4390  -0.4254  -0.3949  -0.3200
 -- Virtual --
  0.0545   0.0918   0.0976   0.1088   0.1194   0.1334   0.1350   0.1366
  0.1413   0.1607   0.1743   0.1794   0.1838   0.1891   0.1957   0.2006
  0.2116   0.2196   0.2368   0.2450   0.2593   0.2634   0.2794   0.2872
  0.2894   0.3006   0.3017   0.3097   0.3109   0.3269   0.3315   0.3416
  0.3539   0.3625   0.3674   0.3789   0.3928   0.3985   0.4056   0.4133
  0.4163   0.4201   0.4253   0.4272   0.4349   0.4424   0.4445   0.4498
  0.4539   0.4620   0.4712   0.4722   0.4830   0.4898   0.4927   0.5049
  0.5070   0.5148   0.5228   0.5278   0.5305   0.5419   0.5462   0.5564
  0.5656   0.5732   0.5781   0.5797   0.5951   0.6016   0.6101   0.6120
  0.6198   0.6302   0.6360   0.6415   0.6571   0.6635   0.6712   0.6853
  0.6968   0.6972   0.7010   0.7181   0.7320   0.7397   0.7554   0.7656
  0.7675   0.7933   0.7967   0.8337   0.8466   0.8582   0.9228   0.9504
  0.9776   0.9976   1.0114   1.0227   1.0348   1.0738   1.0895   1.1001
  1.1038   1.1162   1.1243   1.1331   1.1419   1.1542   1.1672   1.1686
  1.1906   1.2117   1.2399   1.2414   1.2604   1.2834   1.3167   1.3394
  1.3994   1.4028   1.4185   1.4454   1.4678   1.4994   1.5091   1.5186
  1.5407   1.5632   1.5937   1.6131   1.6540   1.7277   1.7650   1.7767
  1.8027   1.8062   1.8186   1.8324   1.8534   1.8662   1.8749   1.8929
  1.9423   1.9526   1.9614   1.9736   1.9991   2.0251   2.0341   2.0450
  2.0781   2.1055   2.1258   2.1366   2.1605   2.1914   2.2120   2.2203
  2.2488   2.2773   2.3057   2.3480   2.3886   2.4085   2.4270   2.4467
  2.4556   2.4802   2.4973   2.5161   2.5366   2.6271   2.6486   2.6591
  2.6878   2.7404   2.7516   2.7859   2.8544   2.8692   3.0022   3.1171
  3.1267   3.1472   3.1506   3.2301   3.2457   3.2669   3.2902   3.2996
  3.3233   3.3399   3.7514   4.1425
 --------------------------------------------------------------
 
          Ground-State Mulliken Net Atomic Charges

     Atom                 Charge (a.u.)
  ----------------------------------------
      1 S                    -0.278142
      2 H                     0.301270
      3 C                    -2.495414
      4 O                    -0.209528
      5 H                     0.130607
      6 H                     0.103136
      7 C                     0.927557
      8 H                     0.007797
      9 H                    -0.055493
     10 H                    -0.027646
     11 C                     1.024609
     12 H                     0.044657
     13 H                    -0.373972
     14 H                     0.145605
     15 C                     0.841373
     16 H                    -0.016290
     17 H                    -0.034065
     18 H                    -0.036061
  ----------------------------------------
  Sum of atomic charges =     0.000000

 -----------------------------------------------------------------
                    Cartesian Multipole Moments
 -----------------------------------------------------------------
    Charge (ESU x 10^10)
                 0.0000
    Dipole Moment (Debye)
         X      -3.1373      Y      -1.6140      Z      -0.0899
       Tot       3.5292
    Quadrupole Moments (Debye-Ang)
        XX     -37.7614     XY      -3.3476     YY     -51.1811
        XZ      -0.2702     YZ       0.1579     ZZ     -47.7494
    Octopole Moments (Debye-Ang^2)
       XXX    -141.7789    XXY      10.9249    XYY     -38.1954
       YYY      44.7115    XXZ      -2.6695    XYZ       0.9632
       YYZ      -1.4086    XZZ     -43.5935    YZZ      13.2128
       ZZZ       0.0971
    Hexadecapole Moments (Debye-Ang^3)
      XXXX    -731.1147   XXXY      57.7515   XXYY    -223.3329
      XYYY      55.8375   YYYY    -409.3307   XXXZ     -10.8582
      XXYZ       2.2098   XYYZ      -3.6761   YYYZ       0.6378
      XXZZ    -162.7223   XYZZ      17.2215   YYZZ    -119.1614
      XZZZ      -1.1125   YZZZ      -1.2091   ZZZZ    -252.0845
 -----------------------------------------------------------------
 Calculating analytic gradient of the SCF energy
 Gradient of SCF Energy
            1           2           3           4           5           6
    1  -0.0014287  -0.0007180   0.0034436   0.0012716   0.0000589  -0.0000296
    2  -0.0050522   0.0010070   0.0126595   0.0003990  -0.0002527  -0.0003640
    3  -0.0012179  -0.0004352   0.0009964   0.0004172   0.0000429  -0.0000864
            7           8           9          10          11          12
    1   0.0070872   0.0059224   0.0018451  -0.0086459  -0.0013440  -0.0117795
    2  -0.0020555   0.0103829  -0.0113783  -0.0002841  -0.0109051   0.0017857
    3   0.0045806  -0.0075538  -0.0006149  -0.0021897   0.0020888  -0.0000582
           13          14          15          16          17          18
    1   0.0082978   0.0018018   0.0033052  -0.0075158  -0.0033815   0.0018093
    2   0.0030364   0.0061514  -0.0067879   0.0099087  -0.0104781   0.0022273
    3   0.0108592  -0.0060328  -0.0067129  -0.0054859   0.0027104   0.0086922
 Max gradient component =       1.266E-02
 RMS gradient           =       5.667E-03
 Gradient time:  CPU 156.54 s  wall 9.94 s
 Geometry Optimization Parameters
   NAtoms,    NIC,     NZ,  NCons,   NDum,   NFix, NCnnct, MaxDiis
       18     115       0       0       0       0       0       0

 Cartesian Hessian Update
 Hessian updated using BFGS update


** GEOMETRY OPTIMIZATION IN DELOCALIZED INTERNAL COORDINATES **
   Searching for a Minimum

   Optimization Cycle:   3

                       Coordinates (Angstroms)
     ATOM                X               Y               Z
      1  S         1.0711162736    1.1445532201    0.0288594441
      2  H        -0.2788162848    1.1510370991    0.0188366988
      3  C         1.2820864452   -0.6727910891    0.0091174134
      4  O        -2.2722834386   -0.0761217641   -0.0279224142
      5  H        -2.8606977881   -0.0863610688    0.7340000045
      6  H        -2.8503559631   -0.0429038541   -0.7970204537
      7  C         2.8124304649   -0.9223997520    0.0322053750
      8  H         3.0883028336   -1.9160866233   -0.3348292143
      9  H         3.3685884882   -0.2897508614   -0.6673430767
     10  H         3.1584204046   -0.7704921946    1.0558063279
     11  C         0.6520526248   -1.3189053177    1.2668103511
     12  H         1.1673731059   -1.0536586468    2.1952738112
     13  H        -0.3561517831   -0.9573310712    1.4851357874
     14  H         0.6580463342   -2.3994816095    1.1053909834
     15  C         0.6620812505   -1.2898445018   -1.2817190492
     16  H         0.0845977795   -2.2006076245   -1.0949861960
     17  H        -0.1050765470   -0.6657934007   -1.7454738796
     18  H         1.4774157997   -1.4796109397   -1.9821319132
   Point Group: c1    Number of degrees of freedom:    48


   Energy is   -632.660100822

 Hessian updated using BFGS update

 35 Hessian modes will be used to form the next step
  Hessian Eigenvalues:
     0.001988    0.002002    0.002032    0.025984    0.033911    0.042519
     0.043980    0.043990    0.048138    0.053402    0.053414    0.053417
     0.054132    0.061334    0.135340    0.158724    0.159969    0.161491
     0.170631    0.238018    0.238201    0.244261    0.251422    0.257869
     0.371108    0.372295    0.372296    0.372299    0.372302    0.372304
     0.372312    0.372380    0.397924    0.548614    0.548617

 Minimum search - taking simple RFO step
 Searching for Lamda that Minimizes Along All modes
 Value Taken    Lamda =  -0.01400270
 Calculated Step too Large.  Step scaled by  0.640999
 Step Taken.  Stepsize is  0.300000

                             Maximum     Tolerance    Cnvgd?
         Gradient           0.016787      0.000100      NO
         Displacement       0.098415      0.000100      NO
         Energy change     -0.018016      0.000000      NO


 New Cartesian Coordinates Obtained by Inverse Iteration

 Displacement from previous Coordinates is:  0.524245
 ----------------------------------------------------------------
             Standard Nuclear Orientation (Angstroms)
    I     Atom           X                Y                Z
 ----------------------------------------------------------------
    1      S       1.0598114732     1.1252105491     0.0671736835
    2      H      -0.2907529962     1.1355640119     0.0453043044
    3      C       1.2907821830    -0.6980791321     0.0216229312
    4      O      -2.3262571943    -0.0356577124    -0.0707809400
    5      H      -2.9233958490    -0.0538772579     0.6842268151
    6      H      -2.8949102076     0.0521108633    -0.8425224959
    7      C       2.8178989097    -0.9175185438     0.0234867649
    8      H       3.0692458416    -1.9376057349    -0.2995801686
    9      H       3.3276992973    -0.2664804164    -0.7008004906
   10      H       3.2231063020    -0.7390008815     1.0260688834
   11      C       0.6808598025    -1.3430443115     1.2794258032
   12      H       1.2171029340    -1.0427099297     2.1898163327
   13      H      -0.3537960797    -1.0194532689     1.4443798591
   14      H       0.7122097576    -2.4353376055     1.1723968207
   15      C       0.6658980401    -1.3001136802    -1.2653848234
   16      H       0.1576264832    -2.2531046615    -1.0642250055
   17      H      -0.1186040807    -0.6627995241    -1.6888882686
   18      H       1.4446053833    -1.4546527640    -2.0217100055
 ----------------------------------------------------------------
 Nuclear Repulsion Energy =         321.47212052 hartrees
 There are       30 alpha and       30 beta electrons
 Applying Cartesian multipole field
    Component          Value
    ---------          -----
     (2,0,0)        1.00000E-11
     (0,2,0)        2.00000E-11
     (0,0,2)       -3.00000E-11
 Nucleus-field energy     =     0.0000000072 hartrees
 Requested basis set is def2-SVPD
 There are 100 shells and 226 basis functions
 A cutoff of  1.0D-14 yielded   4920 shell pairs
 There are     25294 function pairs (     28092 Cartesian)
 Smallest overlap matrix eigenvalue = 7.25E-05
 Guess MOs from SCF MO coefficient file

 -----------------------------------------------------------------------
  General SCF calculation program by
  Eric Jon Sundstrom, Paul Horn, Yuezhi Mao, Dmitri Zuev, Alec White,
  David Stuck, Shaama M.S., Shane Yost, Joonho Lee, David Small,
  Daniel Levine, Susi Lehtola, Hugh Burton, Evgeny Epifanovsky,
  Bang C. Huynh
 -----------------------------------------------------------------------
 Exchange:     0.1670 Hartree-Fock + 1.0000 wB97X-V + LR-HF
 Correlation:  1.0000 wB97X-V
 Using Euler-Maclaurin-Lebedev (99,590) quadrature formula
 Nonlocal Correlation:  VV10 with C = 0.0100 and b = 6.00 and scale = 1.00000
 Grid used for NLC:  SG-1 standard quadrature
 A restricted SCF calculation will be
 performed using DIIS
 SCF converges when DIIS error is below 1.0e-08
 ---------------------------------------
  Cycle       Energy         DIIS error
 ---------------------------------------
    1    -632.6612280970      1.32e-03  
    2    -632.6664885128      1.27e-04  
    3    -632.6667153818      3.59e-05  
    4    -632.6667303282      2.17e-05  
    5    -632.6667336955      3.44e-06  
    6    -632.6667338209      1.68e-06  
    7    -632.6667338461      3.52e-07  
    8    -632.6667338477      1.15e-07  
    9    -632.6667338479      5.08e-08  
   10    -632.6667338479      1.66e-08  
   11    -632.6667338479      5.09e-09  Convergence criterion met
 ---------------------------------------
 SCF time:   CPU 719.49s  wall 45.00s 
 SCF   energy =  -632.66673385
 Total energy =  -632.66673385
 
 --------------------------------------------------------------
 
                    Orbital Energies (a.u.)
 --------------------------------------------------------------
 
 Alpha MOs
 -- Occupied --
-88.8283 -19.2535 -10.3229 -10.2753 -10.2706 -10.2705  -8.0213  -5.9837
 -5.9796  -5.9732  -1.1498  -0.9526  -0.8186  -0.8073  -0.8051  -0.6674
 -0.6511  -0.5655  -0.5519  -0.5477  -0.5240  -0.5075  -0.4934  -0.4651
 -0.4592  -0.4427  -0.4379  -0.4266  -0.3944  -0.3208
 -- Virtual --
  0.0547   0.0914   0.0970   0.1092   0.1190   0.1338   0.1358   0.1367
  0.1410   0.1598   0.1752   0.1823   0.1837   0.1888   0.1960   0.1998
  0.2119   0.2168   0.2351   0.2449   0.2590   0.2617   0.2792   0.2850
  0.2884   0.2992   0.3001   0.3101   0.3133   0.3275   0.3291   0.3386
  0.3544   0.3588   0.3686   0.3768   0.3951   0.3981   0.4067   0.4123
  0.4147   0.4203   0.4230   0.4282   0.4351   0.4411   0.4441   0.4477
  0.4541   0.4611   0.4697   0.4733   0.4802   0.4874   0.4907   0.5047
  0.5092   0.5132   0.5199   0.5256   0.5296   0.5386   0.5482   0.5543
  0.5654   0.5724   0.5803   0.5835   0.5936   0.6015   0.6072   0.6124
  0.6186   0.6295   0.6337   0.6383   0.6576   0.6627   0.6691   0.6859
  0.6938   0.7009   0.7042   0.7197   0.7245   0.7413   0.7549   0.7585
  0.7669   0.7900   0.7948   0.8277   0.8449   0.8532   0.9247   0.9498
  0.9770   0.9943   1.0037   1.0205   1.0368   1.0704   1.0880   1.0961
  1.0997   1.1180   1.1250   1.1303   1.1398   1.1596   1.1601   1.1681
  1.1878   1.2121   1.2383   1.2453   1.2641   1.2899   1.3233   1.3353
  1.3955   1.4059   1.4298   1.4470   1.4715   1.4997   1.5053   1.5146
  1.5277   1.5674   1.5905   1.6081   1.6448   1.7218   1.7709   1.7803
  1.7998   1.8059   1.8225   1.8289   1.8496   1.8579   1.8798   1.8962
  1.9458   1.9493   1.9659   1.9684   1.9809   2.0168   2.0320   2.0456
  2.0761   2.1105   2.1166   2.1318   2.1546   2.1742   2.1950   2.2017
  2.2360   2.2654   2.3047   2.3415   2.3876   2.4050   2.4330   2.4517
  2.4554   2.4808   2.5055   2.5137   2.5197   2.6238   2.6538   2.6622
  2.6803   2.7488   2.7538   2.7895   2.8295   2.8474   2.9910   3.1160
  3.1274   3.1459   3.1474   3.2144   3.2420   3.2558   3.2816   3.2923
  3.3120   3.3354   3.7492   4.1428
 --------------------------------------------------------------
 
          Ground-State Mulliken Net Atomic Charges

     Atom                 Charge (a.u.)
  ----------------------------------------
      1 S                    -0.272012
      2 H                     0.298265
      3 C                    -2.647016
      4 O                    -0.204452
      5 H                     0.126300
      6 H                     0.104500
      7 C                     0.890079
      8 H                     0.050702
      9 H                    -0.024400
     10 H                    -0.041420
     11 C                     1.018426
     12 H                     0.063981
     13 H                    -0.315415
     14 H                     0.146197
     15 C                     0.827089
     16 H                     0.022243
     17 H                    -0.023738
     18 H                    -0.019328
  ----------------------------------------
  Sum of atomic charges =     0.000000

 -----------------------------------------------------------------
                    Cartesian Multipole Moments
 -----------------------------------------------------------------
    Charge (ESU x 10^10)
                -0.0000
    Dipole Moment (Debye)
         X      -3.1067      Y      -1.5518      Z      -0.1424
       Tot       3.4756
    Quadrupole Moments (Debye-Ang)
        XX     -37.6126     XY      -3.6709     YY     -50.9364
        XZ      -0.0227     YZ      -0.1679     ZZ     -47.8462
    Octopole Moments (Debye-Ang^2)
       XXX    -143.6554    XXY      12.9640    XYY     -37.5948
       YYY      44.8009    XXZ      -2.4592    XYZ       1.0226
       YYZ      -1.4642    XZZ     -43.2540    YZZ      13.7763
       ZZZ      -2.5029
    Hexadecapole Moments (Debye-Ang^3)
      XXXX    -738.6826   XXXY      61.4707   XXYY    -225.9142
      XYYY      60.2472   YYYY    -408.7744   XXXZ     -10.2758
      XXYZ      -0.6530   XYYZ      -4.9130   YYYZ      -0.0328
      XXZZ    -164.1481   XYZZ      18.4607   YYZZ    -119.0367
      XZZZ      -5.4180   YZZZ      -1.4202   ZZZZ    -251.8680
 -----------------------------------------------------------------
 Calculating analytic gradient of the SCF energy
 Gradient of SCF Energy
            1           2           3           4           5           6
    1  -0.0015102  -0.0010212   0.0009546   0.0010065  -0.0001086  -0.0001786
    2  -0.0036723   0.0018327   0.0064241   0.0003844  -0.0002600  -0.0002358
    3  -0.0006802  -0.0004549   0.0007304  -0.0000368  -0.0000595   0.0000939
            7           8           9          10          11          12
    1   0.0024095   0.0025467   0.0011783  -0.0035293   0.0005674  -0.0044003
    2  -0.0000801   0.0042826  -0.0040883  -0.0007967  -0.0062329   0.0005950
    3   0.0038917  -0.0046543  -0.0003838  -0.0007857  -0.0000849   0.0005047
           13          14          15          16          17          18
    1   0.0038567   0.0000592   0.0034428  -0.0047414  -0.0012592   0.0007270
    2   0.0024698   0.0027199  -0.0039652   0.0043851  -0.0038389   0.0000766
    3   0.0053336  -0.0026989  -0.0029541  -0.0018101   0.0004794   0.0035698
 Max gradient component =       6.424E-03
 RMS gradient           =       2.717E-03
 Gradient time:  CPU 157.90 s  wall 10.03 s
 Geometry Optimization Parameters
   NAtoms,    NIC,     NZ,  NCons,   NDum,   NFix, NCnnct, MaxDiis
       18     115       0       0       0       0       0       0

 Cartesian Hessian Update
 Hessian updated using BFGS update


** GEOMETRY OPTIMIZATION IN DELOCALIZED INTERNAL COORDINATES **
   Searching for a Minimum

   Optimization Cycle:   4

                       Coordinates (Angstroms)
     ATOM                X               Y               Z
      1  S         1.0598114732    1.1252105491    0.0671736835
      2  H        -0.2907529962    1.1355640119    0.0453043044
      3  C         1.2907821830   -0.6980791321    0.0216229312
      4  O        -2.3262571943   -0.0356577124   -0.0707809400
      5  H        -2.9233958490   -0.0538772579    0.6842268151
      6  H        -2.8949102076    0.0521108633   -0.8425224959
      7  C         2.8178989097   -0.9175185438    0.0234867649
      8  H         3.0692458416   -1.9376057349   -0.2995801686
      9  H         3.3276992973   -0.2664804164   -0.7008004906
     10  H         3.2231063020   -0.7390008815    1.0260688834
     11  C         0.6808598025   -1.3430443115    1.2794258032
     12  H         1.2171029340   -1.0427099297    2.1898163327
     13  H        -0.3537960797   -1.0194532689    1.4443798591
     14  H         0.7122097576   -2.4353376055    1.1723968207
     15  C         0.6658980401   -1.3001136802   -1.2653848234
     16  H         0.1576264832   -2.2531046615   -1.0642250055
     17  H        -0.1186040807   -0.6627995241   -1.6888882686
     18  H         1.4446053833   -1.4546527640   -2.0217100055
   Point Group: c1    Number of degrees of freedom:    48


   Energy is   -632.666733848

 Hessian updated using BFGS update

 37 Hessian modes will be used to form the next step
  Hessian Eigenvalues:
     0.001890    0.002001    0.002006    0.002188    0.025994    0.033898
     0.042295    0.043980    0.043991    0.048108    0.053367    0.053414
     0.053418    0.054336    0.061366    0.131926    0.158719    0.159969
     0.161031    0.163471    0.175072    0.237966    0.238055    0.243629
     0.251203    0.258119    0.370386    0.372295    0.372297    0.372300
     0.372303    0.372310    0.372369    0.372441    0.398403    0.548615
     0.548617

 Minimum search - taking simple RFO step
 Searching for Lamda that Minimizes Along All modes
 Value Taken    Lamda =  -0.00598509
 Calculated Step too Large.  Step scaled by  0.441827
 Step Taken.  Stepsize is  0.300000

                             Maximum     Tolerance    Cnvgd?
         Gradient           0.007203      0.000100      NO
         Displacement       0.125738      0.000100      NO
         Energy change     -0.006633      0.000000      NO


 New Cartesian Coordinates Obtained by Inverse Iteration

 Displacement from previous Coordinates is:  0.633045
 ----------------------------------------------------------------
             Standard Nuclear Orientation (Angstroms)
    I     Atom           X                Y                Z
 ----------------------------------------------------------------
    1      S       1.0695016352     1.1238153081     0.0292167430
    2      H      -0.2807260712     1.1276384348     0.0367704033
    3      C       1.2942370166    -0.7037358504    -0.0039906969
    4      O      -2.3313559821    -0.0327277798     0.0277369805
    5      H      -2.9143543643     0.0033597437     0.7930727770
    6      H      -2.9132571401     0.0184419862    -0.7373833619
    7      C       2.8170213280    -0.9252053088     0.0447468575
    8      H       3.0588772595    -1.9687264111    -0.2093286487
    9      H       3.3388324806    -0.3012309748    -0.6965953058
   10      H       3.2123536441    -0.7005270212     1.0443410021
   11      C       0.6383995584    -1.3324884638     1.2348438131
   12      H       1.1293003721    -0.9934701156     2.1585609191
   13      H      -0.4176234479    -1.0419631578     1.3175794718
   14      H       0.7026210206    -2.4292227724     1.1711369275
   15      C       0.7066871492    -1.3044800806    -1.3046845100
   16      H       0.2503983380    -2.2879731425    -1.1172678461
   17      H      -0.0926844520    -0.6804568509    -1.7231716912
   18      H       1.4909016552    -1.4175975430    -2.0655738343
 ----------------------------------------------------------------
 Nuclear Repulsion Energy =         321.54917930 hartrees
 There are       30 alpha and       30 beta electrons
 Applying Cartesian multipole field
    Component          Value
    ---------          -----
     (2,0,0)        1.00000E-11
     (0,2,0)        2.00000E-11
     (0,0,2)       -3.00000E-11
 Nucleus-field energy     =     0.0000000072 hartrees
 Requested basis set is def2-SVPD
 There are 100 shells and 226 basis functions
 A cutoff of  1.0D-14 yielded   4918 shell pairs
 There are     25282 function pairs (     28080 Cartesian)
 Smallest overlap matrix eigenvalue = 6.81E-05
 Guess MOs from SCF MO coefficient file

 -----------------------------------------------------------------------
  General SCF calculation program by
  Eric Jon Sundstrom, Paul Horn, Yuezhi Mao, Dmitri Zuev, Alec White,
  David Stuck, Shaama M.S., Shane Yost, Joonho Lee, David Small,
  Daniel Levine, Susi Lehtola, Hugh Burton, Evgeny Epifanovsky,
  Bang C. Huynh
 -----------------------------------------------------------------------
 Exchange:     0.1670 Hartree-Fock + 1.0000 wB97X-V + LR-HF
 Correlation:  1.0000 wB97X-V
 Using Euler-Maclaurin-Lebedev (99,590) quadrature formula
 Nonlocal Correlation:  VV10 with C = 0.0100 and b = 6.00 and scale = 1.00000
 Grid used for NLC:  SG-1 standard quadrature
 A restricted SCF calculation will be
 performed using DIIS
 SCF converges when DIIS error is below 1.0e-08
 ---------------------------------------
  Cycle       Energy         DIIS error
 ---------------------------------------
    1    -632.6619299164      1.42e-03  
    2    -632.6685744270      1.46e-04  
    3    -632.6688898350      3.59e-05  
    4    -632.6689106617      1.84e-05  
    5    -632.6689127547      4.61e-06  
    6    -632.6689129431      1.64e-06  
    7    -632.6689129669      3.80e-07  
    8    -632.6689129687      1.03e-07  
    9    -632.6689129689      4.57e-08  
   10    -632.6689129690      1.54e-08  
   11    -632.6689129690      5.62e-09  Convergence criterion met
 ---------------------------------------
 SCF time:   CPU 720.34s  wall 45.00s 
 SCF   energy =  -632.66891297
 Total energy =  -632.66891297
 
 --------------------------------------------------------------
 
                    Orbital Energies (a.u.)
 --------------------------------------------------------------
 
 Alpha MOs
 -- Occupied --
-88.8283 -19.2540 -10.3223 -10.2756 -10.2713 -10.2699  -8.0213  -5.9837
 -5.9796  -5.9732  -1.1503  -0.9532  -0.8183  -0.8072  -0.8047  -0.6679
 -0.6500  -0.5656  -0.5505  -0.5494  -0.5240  -0.5066  -0.4942  -0.4639
 -0.4611  -0.4428  -0.4370  -0.4262  -0.3947  -0.3212
 -- Virtual --
  0.0546   0.0912   0.0967   0.1093   0.1187   0.1336   0.1360   0.1369
  0.1410   0.1591   0.1754   0.1832   0.1846   0.1895   0.1958   0.2007
  0.2125   0.2151   0.2336   0.2436   0.2579   0.2596   0.2781   0.2842
  0.2894   0.2984   0.2992   0.3083   0.3182   0.3275   0.3303   0.3354
  0.3544   0.3610   0.3651   0.3754   0.3977   0.3980   0.4065   0.4115
  0.4151   0.4198   0.4229   0.4292   0.4363   0.4391   0.4404   0.4451
  0.4542   0.4621   0.4717   0.4739   0.4795   0.4847   0.4905   0.5042
  0.5069   0.5106   0.5214   0.5254   0.5278   0.5408   0.5485   0.5547
  0.5658   0.5705   0.5812   0.5866   0.5950   0.5995   0.6048   0.6152
  0.6180   0.6285   0.6359   0.6402   0.6573   0.6655   0.6696   0.6856
  0.6955   0.7029   0.7084   0.7174   0.7228   0.7331   0.7495   0.7544
  0.7648   0.7951   0.8028   0.8219   0.8443   0.8545   0.9286   0.9534
  0.9750   0.9946   0.9955   1.0213   1.0402   1.0736   1.0880   1.0944
  1.0979   1.1175   1.1237   1.1284   1.1416   1.1554   1.1630   1.1723
  1.1888   1.2106   1.2359   1.2412   1.2673   1.2912   1.3390   1.3583
  1.3987   1.4106   1.4376   1.4429   1.4721   1.4967   1.5127   1.5176
  1.5312   1.5784   1.5819   1.6081   1.6437   1.7236   1.7726   1.7849
  1.7949   1.8093   1.8161   1.8354   1.8485   1.8559   1.8819   1.8980
  1.9359   1.9552   1.9616   1.9698   1.9907   2.0069   2.0334   2.0503
  2.0741   2.1079   2.1089   2.1243   2.1505   2.1703   2.1931   2.2025
  2.2344   2.2587   2.3041   2.3408   2.3856   2.4027   2.4349   2.4525
  2.4623   2.4836   2.5077   2.5139   2.5155   2.6264   2.6479   2.6611
  2.6806   2.7507   2.7578   2.7901   2.8226   2.8397   2.9910   3.1155
  3.1296   3.1453   3.1474   3.2096   3.2374   3.2525   3.2723   3.2898
  3.3081   3.3366   3.7482   4.1411
 --------------------------------------------------------------
 
          Ground-State Mulliken Net Atomic Charges

     Atom                 Charge (a.u.)
  ----------------------------------------
      1 S                    -0.268853
      2 H                     0.301192
      3 C                    -2.765358
      4 O                    -0.214861
      5 H                     0.133156
      6 H                     0.101860
      7 C                     0.884611
      8 H                     0.069014
      9 H                    -0.018934
     10 H                    -0.044453
     11 C                     1.106843
     12 H                     0.099560
     13 H                    -0.412518
     14 H                     0.166179
     15 C                     0.838477
     16 H                     0.037696
     17 H                    -0.006979
     18 H                    -0.006631
  ----------------------------------------
  Sum of atomic charges =     0.000000

 -----------------------------------------------------------------
                    Cartesian Multipole Moments
 -----------------------------------------------------------------
    Charge (ESU x 10^10)
                -0.0000
    Dipole Moment (Debye)
         X      -3.1231      Y      -1.5237      Z      -0.0584
       Tot       3.4755
    Quadrupole Moments (Debye-Ang)
        XX     -37.6386     XY      -3.7576     YY     -50.8976
        XZ      -0.2236     YZ       0.0763     ZZ     -47.8914
    Octopole Moments (Debye-Ang^2)
       XXX    -144.5174    XXY      13.5210    XYY     -37.4828
       YYY      44.6103    XXZ      -0.8213    XYZ       0.4025
       YYZ      -0.8651    XZZ     -43.4411    YZZ      13.9519
       ZZZ      -0.4483
    Hexadecapole Moments (Debye-Ang^3)
      XXXX    -741.1085   XXXY      61.4746   XXYY    -226.5335
      XYYY      59.9048   YYYY    -407.7966   XXXZ      -3.8954
      XXYZ       0.1144   XYYZ      -1.1129   YYYZ      -1.3751
      XXZZ    -164.6598   XYZZ      18.8649   YYZZ    -118.9662
      XZZZ       1.5350   YZZZ      -1.8616   ZZZZ    -250.7407
 -----------------------------------------------------------------
 Calculating analytic gradient of the SCF energy
 Gradient of SCF Energy
            1           2           3           4           5           6
    1  -0.0011464  -0.0007147  -0.0001016   0.0012492  -0.0000661  -0.0001599
    2  -0.0024258   0.0011586   0.0038948   0.0002072  -0.0002916  -0.0002238
    3  -0.0004380  -0.0001663   0.0001221   0.0002749  -0.0001159   0.0001920
            7           8           9          10          11          12
    1   0.0010624   0.0014362   0.0007540  -0.0015686   0.0014045  -0.0021568
    2   0.0009629   0.0019769  -0.0016755  -0.0008064  -0.0040295   0.0002157
    3   0.0026918  -0.0029345  -0.0000783  -0.0003063  -0.0008401   0.0004179
           13          14          15          16          17          18
    1   0.0010685  -0.0004287   0.0025217  -0.0035102  -0.0001684   0.0005250
    2   0.0021837   0.0013163  -0.0024165   0.0024674  -0.0017379  -0.0007765
    3   0.0032929  -0.0014127  -0.0016227  -0.0007829  -0.0002770   0.0019832
 Max gradient component =       4.030E-03
 RMS gradient           =       1.628E-03
 Gradient time:  CPU 158.57 s  wall 10.07 s
 Geometry Optimization Parameters
   NAtoms,    NIC,     NZ,  NCons,   NDum,   NFix, NCnnct, MaxDiis
       18     115       0       0       0       0       0       0

 Cartesian Hessian Update
 Hessian updated using BFGS update


** GEOMETRY OPTIMIZATION IN DELOCALIZED INTERNAL COORDINATES **
   Searching for a Minimum

   Optimization Cycle:   5

                       Coordinates (Angstroms)
     ATOM                X               Y               Z
      1  S         1.0695016352    1.1238153081    0.0292167430
      2  H        -0.2807260712    1.1276384348    0.0367704033
      3  C         1.2942370166   -0.7037358504   -0.0039906969
      4  O        -2.3313559821   -0.0327277798    0.0277369805
      5  H        -2.9143543643    0.0033597437    0.7930727770
      6  H        -2.9132571401    0.0184419862   -0.7373833619
      7  C         2.8170213280   -0.9252053088    0.0447468575
      8  H         3.0588772595   -1.9687264111   -0.2093286487
      9  H         3.3388324806   -0.3012309748   -0.6965953058
     10  H         3.2123536441   -0.7005270212    1.0443410021
     11  C         0.6383995584   -1.3324884638    1.2348438131
     12  H         1.1293003721   -0.9934701156    2.1585609191
     13  H        -0.4176234479   -1.0419631578    1.3175794718
     14  H         0.7026210206   -2.4292227724    1.1711369275
     15  C         0.7066871492   -1.3044800806   -1.3046845100
     16  H         0.2503983380   -2.2879731425   -1.1172678461
     17  H        -0.0926844520   -0.6804568509   -1.7231716912
     18  H         1.4909016552   -1.4175975430   -2.0655738343
   Point Group: c1    Number of degrees of freedom:    48


   Energy is   -632.668912969

 Hessian updated using BFGS update

 39 Hessian modes will be used to form the next step
  Hessian Eigenvalues:
     0.001175    0.002000    0.002002    0.002038    0.005289    0.025670
     0.033684    0.039810    0.043991    0.044068    0.048727    0.053361
     0.053416    0.053423    0.054360    0.061504    0.116464    0.158655
     0.159974    0.160115    0.162245    0.171342    0.193847    0.237395
     0.238098    0.242077    0.252125    0.258674    0.370139    0.372295
     0.372299    0.372301    0.372308    0.372314    0.372375    0.373551
     0.401930    0.548615    0.548636

 Minimum search - taking simple RFO step
 Searching for Lamda that Minimizes Along All modes
 Value Taken    Lamda =  -0.00533676
 Calculated Step too Large.  Step scaled by  0.364457
 Step Taken.  Stepsize is  0.300000

                             Maximum     Tolerance    Cnvgd?
         Gradient           0.003825      0.000100      NO
         Displacement       0.130174      0.000100      NO
         Energy change     -0.002179      0.000000      NO


 New Cartesian Coordinates Obtained by Inverse Iteration

 Displacement from previous Coordinates is:  0.708132
 ----------------------------------------------------------------
             Standard Nuclear Orientation (Angstroms)
    I     Atom           X                Y                Z
 ----------------------------------------------------------------
    1      S       1.0682904587     1.1137251256     0.0908691646
    2      H      -0.2816346258     1.1158315285     0.0627574939
    3      C       1.2995267197    -0.7155804970     0.0262795307
    4      O      -2.3602264039    -0.0032984703    -0.0766989580
    5      H      -2.9651749144     0.0047559848     0.6722860303
    6      H      -2.9169238462     0.1116933734    -0.8536045084
    7      C       2.8216891928    -0.9270204060     0.0184143666
    8      H       3.0493474231    -1.9808781135    -0.2092348848
    9      H       3.3043962793    -0.3095287199    -0.7548764113
   10      H       3.2640526220    -0.6784024830     0.9941065323
   11      C       0.6860619073    -1.3580965812     1.2766400072
   12      H       1.1913101549    -1.0009207941     2.1861176980
   13      H      -0.3812382821    -1.1097833140     1.3598652933
   14      H       0.7838911020    -2.4549319549     1.2236725287
   15      C       0.6709701271    -1.2984069477    -1.2586777373
   16      H       0.2986450684    -2.3194061359    -1.0807411146
   17      H      -0.1816673102    -0.6987213550    -1.6026098838
   18      H       1.4078143273    -1.3375802398    -2.0745551476
 ----------------------------------------------------------------
 Nuclear Repulsion Energy =         321.08311176 hartrees
 There are       30 alpha and       30 beta electrons
 Applying Cartesian multipole field
    Component          Value
    ---------          -----
     (2,0,0)        1.00000E-11
     (0,2,0)        2.00000E-11
     (0,0,2)       -3.00000E-11
 Nucleus-field energy     =     0.0000000073 hartrees
 Requested basis set is def2-SVPD
 There are 100 shells and 226 basis functions
 A cutoff of  1.0D-14 yielded   4916 shell pairs
 There are     25286 function pairs (     28083 Cartesian)
 Smallest overlap matrix eigenvalue = 6.45E-05
 Guess MOs from SCF MO coefficient file

 -----------------------------------------------------------------------
  General SCF calculation program by
  Eric Jon Sundstrom, Paul Horn, Yuezhi Mao, Dmitri Zuev, Alec White,
  David Stuck, Shaama M.S., Shane Yost, Joonho Lee, David Small,
  Daniel Levine, Susi Lehtola, Hugh Burton, Evgeny Epifanovsky,
  Bang C. Huynh
 -----------------------------------------------------------------------
 Exchange:     0.1670 Hartree-Fock + 1.0000 wB97X-V + LR-HF
 Correlation:  1.0000 wB97X-V
 Using Euler-Maclaurin-Lebedev (99,590) quadrature formula
 Nonlocal Correlation:  VV10 with C = 0.0100 and b = 6.00 and scale = 1.00000
 Grid used for NLC:  SG-1 standard quadrature
 A restricted SCF calculation will be
 performed using DIIS
 SCF converges when DIIS error is below 1.0e-08
 ---------------------------------------
  Cycle       Energy         DIIS error
 ---------------------------------------
    1    -632.6620823846      1.46e-03  
    2    -632.6700365508      1.60e-04  
    3    -632.6704063579      4.12e-05  
    4    -632.6704287014      2.62e-05  
    5    -632.6704333761      4.23e-06  
    6    -632.6704335932      2.05e-06  
    7    -632.6704336284      4.53e-07  
    8    -632.6704336309      1.48e-07  
    9    -632.6704336313      6.91e-08  
   10    -632.6704336313      1.55e-08  
   11    -632.6704336313      4.12e-09  Convergence criterion met
 ---------------------------------------
 SCF time:   CPU 716.69s  wall 45.00s 
 SCF   energy =  -632.67043363
 Total energy =  -632.67043363
 
 --------------------------------------------------------------
 
                    Orbital Energies (a.u.)
 --------------------------------------------------------------
 
 Alpha MOs
 -- Occupied --
-88.8285 -19.2537 -10.3221 -10.2759 -10.2713 -10.2712  -8.0214  -5.9837
 -5.9797  -5.9733  -1.1500  -0.9541  -0.8182  -0.8075  -0.8049  -0.6675
 -0.6495  -0.5664  -0.5500  -0.5499  -0.5241  -0.5063  -0.4947  -0.4640
 -0.4613  -0.4434  -0.4369  -0.4267  -0.3947  -0.3215
 -- Virtual --
  0.0548   0.0911   0.0964   0.1094   0.1185   0.1336   0.1362   0.1375
  0.1409   0.1586   0.1765   0.1843   0.1845   0.1903   0.1969   0.2025
  0.2122   0.2130   0.2330   0.2430   0.2558   0.2589   0.2769   0.2830
  0.2885   0.2975   0.3001   0.3099   0.3179   0.3277   0.3282   0.3361
  0.3544   0.3570   0.3676   0.3738   0.3957   0.3999   0.4063   0.4123
  0.4156   0.4213   0.4225   0.4290   0.4374   0.4384   0.4416   0.4457
  0.4563   0.4613   0.4699   0.4718   0.4786   0.4823   0.4898   0.5015
  0.5073   0.5128   0.5208   0.5228   0.5274   0.5379   0.5494   0.5543
  0.5645   0.5702   0.5813   0.5877   0.5953   0.5996   0.6014   0.6142
  0.6147   0.6307   0.6356   0.6415   0.6559   0.6656   0.6687   0.6843
  0.6949   0.7053   0.7107   0.7181   0.7216   0.7388   0.7481   0.7600
  0.7646   0.7961   0.8014   0.8158   0.8504   0.8565   0.9293   0.9523
  0.9741   0.9862   0.9988   1.0248   1.0468   1.0740   1.0829   1.0925
  1.1010   1.1168   1.1183   1.1330   1.1403   1.1538   1.1623   1.1706
  1.1894   1.2108   1.2370   1.2550   1.2659   1.2956   1.3389   1.3429
  1.3974   1.4088   1.4365   1.4432   1.4782   1.4909   1.5051   1.5148
  1.5303   1.5750   1.5888   1.6090   1.6396   1.7153   1.7747   1.7889
  1.7966   1.8050   1.8143   1.8402   1.8471   1.8506   1.8807   1.8961
  1.9294   1.9484   1.9603   1.9753   1.9826   2.0042   2.0342   2.0563
  2.0742   2.1004   2.1060   2.1294   2.1448   2.1699   2.1879   2.1904
  2.2312   2.2486   2.3028   2.3413   2.3875   2.3989   2.4394   2.4531
  2.4707   2.4854   2.5017   2.5124   2.5187   2.6241   2.6432   2.6631
  2.6807   2.7513   2.7593   2.7900   2.8194   2.8360   2.9933   3.1159
  3.1302   3.1430   3.1465   3.2064   3.2334   3.2521   3.2673   3.2962
  3.3042   3.3323   3.7475   4.1425
 --------------------------------------------------------------
 
          Ground-State Mulliken Net Atomic Charges

     Atom                 Charge (a.u.)
  ----------------------------------------
      1 S                    -0.264306
      2 H                     0.299322
      3 C                    -2.855963
      4 O                    -0.203472
      5 H                     0.117587
      6 H                     0.108825
      7 C                     0.885118
      8 H                     0.082406
      9 H                    -0.014797
     10 H                    -0.040706
     11 C                     1.045145
     12 H                     0.080223
     13 H                    -0.310416
     14 H                     0.170510
     15 C                     0.870519
     16 H                     0.061607
     17 H                    -0.044749
     18 H                     0.013147
  ----------------------------------------
  Sum of atomic charges =     0.000000

 -----------------------------------------------------------------
                    Cartesian Multipole Moments
 -----------------------------------------------------------------
    Charge (ESU x 10^10)
                 0.0000
    Dipole Moment (Debye)
         X      -3.0913      Y      -1.4698      Z      -0.1670
       Tot       3.4270
    Quadrupole Moments (Debye-Ang)
        XX     -37.5638     XY      -4.0035     YY     -50.7782
        XZ       0.1057     YZ      -0.2924     ZZ     -47.9179
    Octopole Moments (Debye-Ang^2)
       XXX    -145.3331    XXY      14.7988    XYY     -37.2783
       YYY      44.7147    XXZ      -2.1357    XYZ       0.7848
       YYZ      -1.3889    XZZ     -43.2760    YZZ      14.2947
       ZZZ      -4.0114
    Hexadecapole Moments (Debye-Ang^3)
      XXXX    -745.8039   XXXY      62.6964   XXYY    -228.0697
      XYYY      62.7216   YYYY    -408.1591   XXXZ      -9.4182
      XXYZ      -2.1350   XYYZ      -4.5142   YYYZ      -0.5967
      XXZZ    -165.5436   XYZZ      19.7551   YYZZ    -119.1392
      XZZZ      -7.2221   YZZZ      -1.5580   ZZZZ    -250.4211
 -----------------------------------------------------------------
 Calculating analytic gradient of the SCF energy
 Gradient of SCF Energy
            1           2           3           4           5           6
    1  -0.0009540  -0.0006177  -0.0005344   0.0009400  -0.0002268  -0.0001972
    2  -0.0016084   0.0011883   0.0013390   0.0003130  -0.0002913  -0.0001754
    3   0.0002196  -0.0004329   0.0003953  -0.0002003  -0.0000445   0.0001326
            7           8           9          10          11          12
    1   0.0001770   0.0003418   0.0004485  -0.0003739   0.0010558   0.0000687
    2   0.0015266   0.0005906   0.0000886  -0.0007309  -0.0014984  -0.0003169
    3   0.0010101  -0.0015012   0.0001354  -0.0000158  -0.0002562   0.0001741
           13          14          15          16          17          18
    1   0.0007390  -0.0006823   0.0009796  -0.0020757   0.0006479   0.0002638
    2   0.0009180   0.0003106  -0.0018508   0.0010574   0.0004529  -0.0013129
    3   0.0011440  -0.0004867   0.0002148   0.0000610  -0.0011095   0.0005603
 Max gradient component =       2.076E-03
 RMS gradient           =       8.266E-04
 Gradient time:  CPU 156.38 s  wall 9.95 s
 Geometry Optimization Parameters
   NAtoms,    NIC,     NZ,  NCons,   NDum,   NFix, NCnnct, MaxDiis
       18     115       0       0       0       0       0       0

 Cartesian Hessian Update
 Hessian updated using BFGS update


** GEOMETRY OPTIMIZATION IN DELOCALIZED INTERNAL COORDINATES **
   Searching for a Minimum

   Optimization Cycle:   6

                       Coordinates (Angstroms)
     ATOM                X               Y               Z
      1  S         1.0682904587    1.1137251256    0.0908691646
      2  H        -0.2816346258    1.1158315285    0.0627574939
      3  C         1.2995267197   -0.7155804970    0.0262795307
      4  O        -2.3602264039   -0.0032984703   -0.0766989580
      5  H        -2.9651749144    0.0047559848    0.6722860303
      6  H        -2.9169238462    0.1116933734   -0.8536045084
      7  C         2.8216891928   -0.9270204060    0.0184143666
      8  H         3.0493474231   -1.9808781135   -0.2092348848
      9  H         3.3043962793   -0.3095287199   -0.7548764113
     10  H         3.2640526220   -0.6784024830    0.9941065323
     11  C         0.6860619073   -1.3580965812    1.2766400072
     12  H         1.1913101549   -1.0009207941    2.1861176980
     13  H        -0.3812382821   -1.1097833140    1.3598652933
     14  H         0.7838911020   -2.4549319549    1.2236725287
     15  C         0.6709701271   -1.2984069477   -1.2586777373
     16  H         0.2986450684   -2.3194061359   -1.0807411146
     17  H        -0.1816673102   -0.6987213550   -1.6026098838
     18  H         1.4078143273   -1.3375802398   -2.0745551476
   Point Group: c1    Number of degrees of freedom:    48


   Energy is   -632.670433631

 Hessian updated using BFGS update

[...]
 H         -0.001 -0.003  0.112    0.370  0.007  0.008    0.441 -0.006  0.009
 H          0.297 -0.012  0.074   -0.240  0.177  0.037   -0.101  0.201  0.099
 H         -0.302  0.010  0.062   -0.236  0.178 -0.040   -0.097  0.205 -0.094
 C         -0.090  0.052  0.044    0.037  0.047  0.070    0.032 -0.100 -0.017
 H          0.077 -0.173  0.076   -0.195 -0.228  0.298   -0.092  0.204 -0.094
 H         -0.143 -0.298  0.316    0.025 -0.046 -0.189    0.073  0.230 -0.010
 H          0.231  0.102 -0.258    0.005  0.039 -0.222   -0.203 -0.131  0.338
 C          0.088 -0.053  0.045    0.039  0.051 -0.066    0.031 -0.101  0.014
 H         -0.219 -0.090 -0.271   -0.003  0.029  0.225   -0.189 -0.115 -0.352
 H          0.129  0.282  0.337    0.016 -0.057  0.184    0.072  0.229  0.024
 H         -0.082  0.168  0.078   -0.182 -0.215 -0.317   -0.096  0.200  0.099
 TransDip  -0.001 -0.001  0.021   -0.031 -0.015 -0.001   -0.043  0.193  0.004

 Mode:                25                     26                     27
 Frequency:      1261.51                1281.10                1395.82
 Force Cnst:      2.3817                 2.3669                 1.5527
 Red. Mass:       2.5401                 2.4477                 1.3527
 IR Active:          YES                    YES                    YES
 IR Intens:        0.809                  0.799                 16.988
 Raman Active:       YES                    YES                    YES
               X      Y      Z        X      Y      Z        X      Y      Z
 S          0.000  0.000 -0.005   -0.012 -0.012 -0.001    0.000  0.000 -0.001
 H         -0.000 -0.000  0.007   -0.016  0.282  0.006   -0.000  0.000 -0.000
 C         -0.007 -0.008  0.330    0.316  0.070  0.008   -0.001 -0.001  0.059
 O          0.000  0.000 -0.001    0.001 -0.001 -0.000   -0.000 -0.000  0.000
 H          0.004 -0.002  0.003   -0.003  0.004 -0.004   -0.000 -0.000 -0.000
 H         -0.004  0.002  0.003   -0.004  0.004  0.004    0.000  0.000  0.000
 C          0.003  0.003 -0.121   -0.059 -0.017 -0.002   -0.001  0.001 -0.020
 H         -0.007 -0.007  0.307   -0.201 -0.035 -0.005    0.002 -0.001  0.109
 H          0.330  0.072  0.110   -0.281  0.139 -0.027    0.015  0.051  0.019
 H         -0.335 -0.077  0.093   -0.281  0.138  0.022   -0.008 -0.054  0.013
 C         -0.018  0.002 -0.086   -0.100 -0.021 -0.021    0.040  0.046 -0.099
 H          0.228  0.207 -0.292    0.159 -0.071 -0.095   -0.223 -0.271  0.174
 H          0.016  0.160 -0.014   -0.108 -0.094  0.372   -0.002 -0.173  0.348
 H          0.206  0.053 -0.071    0.170  0.020  0.219   -0.156  0.002  0.377
 C          0.022  0.002 -0.085   -0.100 -0.022  0.015   -0.036 -0.042 -0.104
 H         -0.203 -0.050 -0.083    0.179  0.030 -0.210    0.144 -0.020  0.386
 H         -0.015 -0.159 -0.023   -0.092 -0.077 -0.380   -0.014  0.159  0.359
 H         -0.215 -0.193 -0.311    0.155 -0.075  0.098    0.218  0.264  0.198
 TransDip  -0.001 -0.001  0.029    0.029 -0.001  0.001   -0.002 -0.003  0.132

 Mode:                28                     29                     30
 Frequency:      1396.05                1418.59                1456.98
 Force Cnst:      1.5680                 1.4836                 1.3069
 Red. Mass:       1.3655                 1.2512                 1.0449
 IR Active:          YES                    YES                    YES
 IR Intens:       12.850                  3.797                  0.035
 Raman Active:       YES                    YES                    YES
               X      Y      Z        X      Y      Z        X      Y      Z
 S          0.002  0.002  0.000   -0.000 -0.001 -0.000    0.000  0.000 -0.000
 H          0.002 -0.043 -0.001   -0.001  0.022  0.001   -0.000 -0.000  0.002
 C         -0.063 -0.013 -0.001    0.006 -0.013 -0.000    0.000  0.000 -0.002
 O          0.000 -0.000  0.000    0.001 -0.000  0.000   -0.000 -0.000  0.000
 H         -0.001 -0.000 -0.001   -0.003  0.001 -0.003   -0.001  0.000 -0.001
 H         -0.001 -0.000  0.001   -0.003  0.001  0.003    0.001 -0.000 -0.001
 C          0.133 -0.016  0.002   -0.085  0.019 -0.001    0.001  0.001 -0.031
 H         -0.444 -0.132 -0.012    0.330  0.104  0.009   -0.009 -0.009  0.383
 H         -0.378  0.155 -0.172    0.272 -0.153  0.095   -0.126  0.227  0.031
 H         -0.385  0.147  0.163    0.276 -0.148 -0.091    0.125 -0.227  0.025
 C          0.045  0.032 -0.048    0.031  0.042 -0.067    0.032 -0.002  0.015
 H         -0.178 -0.109  0.118   -0.159 -0.241  0.153   -0.121  0.306 -0.067
 H          0.008 -0.163  0.179   -0.009 -0.194  0.250   -0.010 -0.221  0.131
 H         -0.206 -0.018  0.158   -0.161  0.001  0.300   -0.324 -0.062 -0.262
 C          0.042  0.028  0.049    0.028  0.039  0.070   -0.032  0.001  0.013
 H         -0.196 -0.011 -0.159   -0.148  0.015 -0.306    0.334  0.074 -0.245
 H          0.016 -0.151 -0.179    0.001 -0.182 -0.259    0.004  0.214  0.142
 H         -0.169 -0.098 -0.127   -0.152 -0.233 -0.170    0.124 -0.303 -0.076
 TransDip  -0.113 -0.018 -0.002    0.030 -0.055 -0.001   -0.000 -0.000  0.006

 Mode:                31                     32                     33
 Frequency:      1465.66                1467.68                1484.57
 Force Cnst:      1.3205                 1.3243                 1.3880
 Red. Mass:       1.0433                 1.0434                 1.0689
 IR Active:          YES                    YES                    YES
 IR Intens:        0.020                  0.216                  6.633
 Raman Active:       YES                    YES                    YES
               X      Y      Z        X      Y      Z        X      Y      Z
 S          0.000  0.000 -0.000    0.000  0.001  0.000    0.001  0.001  0.000
 H          0.000  0.000 -0.001    0.002 -0.012 -0.000    0.002 -0.040 -0.002
 C          0.000  0.000 -0.006   -0.002 -0.002 -0.000   -0.055 -0.006  0.001
 O         -0.000 -0.000  0.000   -0.001  0.001 -0.000   -0.001  0.000  0.000
 H         -0.002 -0.001 -0.002    0.005 -0.004  0.006    0.003 -0.000  0.002
 H          0.002  0.001 -0.001    0.006 -0.004 -0.005    0.003 -0.000 -0.002
 C          0.000  0.000 -0.020   -0.011 -0.044 -0.001    0.023 -0.009  0.002
 H         -0.006 -0.006  0.277   -0.276 -0.088 -0.008   -0.081 -0.031 -0.023
 H         -0.099  0.165  0.022    0.202  0.361  0.324    0.010  0.057  0.029
 H          0.099 -0.164  0.018    0.215  0.375 -0.299   -0.006  0.084 -0.029
 C         -0.014  0.031  0.015   -0.001  0.021  0.011   -0.022  0.005 -0.020
 H          0.377 -0.200 -0.057    0.220 -0.053 -0.060    0.094 -0.359  0.104
 H         -0.048 -0.264 -0.334   -0.037 -0.239 -0.182    0.026  0.270 -0.159
 H         -0.116  0.001  0.202   -0.166 -0.015  0.070    0.352  0.069  0.301
 C          0.013 -0.032  0.014   -0.001  0.022 -0.010   -0.024  0.002  0.019
 H          0.107 -0.011  0.207   -0.165 -0.012 -0.077    0.388  0.086 -0.284
 H          0.062  0.279 -0.319   -0.045 -0.250  0.169    0.021  0.287  0.171
 H         -0.374  0.203 -0.063    0.218 -0.056  0.067    0.090 -0.362 -0.124
 TransDip  -0.000 -0.000  0.005    0.009  0.012  0.001    0.080  0.019 -0.001

 Mode:                34                     35                     36
 Frequency:      1484.69                1500.29                1607.84
 Force Cnst:      1.3824                 1.3971                 1.6488
 Red. Mass:       1.0644                 1.0535                 1.0825
 IR Active:          YES                    YES                    YES
 IR Intens:        7.881                  7.403                 90.634
 Raman Active:       YES                    YES                    YES
               X      Y      Z        X      Y      Z        X      Y      Z
 S          0.000  0.000  0.000   -0.000 -0.002 -0.000    0.000 -0.000  0.000
 H         -0.000 -0.002  0.014   -0.000  0.003  0.000   -0.003  0.006  0.000
 C         -0.001  0.001 -0.051   -0.005  0.044  0.001    0.001 -0.001  0.000
 O         -0.000  0.000 -0.000   -0.002  0.001 -0.000   -0.064  0.030 -0.001
 H          0.002  0.001  0.001    0.011 -0.006  0.010    0.497 -0.246  0.436
 H         -0.002 -0.001  0.001    0.011 -0.006 -0.010    0.518 -0.228 -0.420
 C          0.002  0.000 -0.031    0.013  0.023  0.001   -0.000  0.000 -0.000
 H         -0.014 -0.013  0.514    0.216  0.061  0.007   -0.001  0.000 -0.000
 H         -0.211  0.318  0.035   -0.170 -0.246 -0.240    0.002  0.001  0.001
 H          0.209 -0.315  0.028   -0.179 -0.257  0.222    0.002  0.001 -0.001
 C         -0.019 -0.021  0.001   -0.010  0.018  0.017    0.000 -0.000 -0.001
 H         -0.101 -0.116  0.088    0.333 -0.116 -0.077   -0.011  0.004  0.002
 H          0.034  0.322  0.033   -0.043 -0.243 -0.295    0.001  0.006  0.014
 H          0.312  0.040  0.055   -0.147 -0.014  0.161    0.003  0.000 -0.004
 C          0.017  0.021  0.005   -0.010  0.019 -0.017    0.000 -0.000  0.001
 H         -0.284 -0.035  0.018   -0.140 -0.006 -0.168    0.003  0.000  0.004
 H         -0.033 -0.300  0.029   -0.056 -0.256  0.281    0.002  0.006 -0.014
 H          0.103  0.084  0.088    0.329 -0.120  0.086   -0.011  0.004 -0.003
 TransDip   0.001 -0.001  0.090    0.009 -0.087 -0.002    0.278 -0.126  0.004

 Mode:                37                     38                     39
 Frequency:      2737.01                3041.99                3044.25
 Force Cnst:      4.5815                 5.6586                 5.6620
 Red. Mass:       1.0380                 1.0379                 1.0370
 IR Active:          YES                    YES                    YES
 IR Intens:       24.038                 20.930                 20.763
 Raman Active:       YES                    YES                    YES
               X      Y      Z        X      Y      Z        X      Y      Z
 S         -0.031 -0.001 -0.001   -0.000 -0.000  0.000   -0.000 -0.000 -0.000
 H          0.999  0.035  0.022    0.000 -0.000 -0.000    0.000  0.001  0.000
 C         -0.001  0.000 -0.000    0.000  0.000 -0.002    0.002  0.000  0.000
 O         -0.001  0.000 -0.000   -0.000  0.000  0.000   -0.000  0.000 -0.000
 H          0.002 -0.001 -0.001    0.000 -0.000 -0.000   -0.000 -0.000 -0.000
 H          0.002 -0.001  0.001   -0.000  0.000 -0.000   -0.000 -0.000  0.000
 C          0.000  0.000  0.000   -0.000  0.000 -0.000   -0.029  0.008 -0.000
 H         -0.000  0.001  0.000    0.000 -0.001  0.000    0.075 -0.378 -0.007
 H          0.000 -0.001  0.000   -0.001  0.000  0.000    0.137  0.146 -0.266
 H          0.000 -0.001 -0.000    0.002  0.001  0.002    0.126  0.134  0.278
 C          0.000 -0.001 -0.000   -0.010 -0.027  0.024   -0.008 -0.021  0.019
 H         -0.000  0.000  0.000   -0.130 -0.141 -0.285   -0.104 -0.112 -0.229
 H         -0.001  0.001 -0.000    0.333 -0.055  0.008    0.265 -0.044  0.007
 H         -0.000  0.002  0.001   -0.094  0.512  0.007   -0.073  0.396  0.005
 C          0.000 -0.001  0.000    0.008  0.025  0.025   -0.007 -0.020 -0.021
 H         -0.000  0.002 -0.001    0.093 -0.507 -0.013   -0.074  0.400  0.010
 H         -0.001  0.001  0.000   -0.330  0.054 -0.003    0.269 -0.044  0.002
 H         -0.000  0.000 -0.000    0.141  0.153 -0.270   -0.115 -0.124  0.222
 TransDip   0.155  0.023  0.004   -0.003 -0.004  0.146   -0.097 -0.109 -0.005

 Mode:                40                     41                     42
 Frequency:      3048.90                3130.40                3132.82
 Force Cnst:      5.6808                 6.3559                 6.3725
 Red. Mass:       1.0372                 1.1009                 1.1020
 IR Active:          YES                    YES                    YES
 IR Intens:       30.767                  4.241                  8.080
 Raman Active:       YES                    YES                    YES
               X      Y      Z        X      Y      Z        X      Y      Z
 S          0.000  0.000  0.000   -0.000 -0.000  0.000   -0.000 -0.000 -0.000
 H         -0.001 -0.001 -0.000   -0.000  0.000 -0.002    0.003 -0.000  0.000
 C         -0.001  0.000 -0.000    0.000 -0.000 -0.000   -0.000  0.001  0.000
 O         -0.000  0.000 -0.000    0.000 -0.000  0.000   -0.000  0.000 -0.000
 H         -0.000 -0.000 -0.000   -0.000  0.000  0.000    0.000  0.000 -0.000
 H         -0.000 -0.000  0.000    0.000 -0.000  0.000    0.000  0.000  0.000
 C          0.039 -0.010  0.001   -0.000  0.000  0.004   -0.009 -0.051 -0.002
 H         -0.098  0.482  0.009    0.000 -0.002  0.002   -0.089  0.421  0.008
 H         -0.183 -0.191  0.350    0.012  0.013 -0.022    0.104  0.099 -0.200
 H         -0.168 -0.175 -0.366   -0.012 -0.013 -0.025    0.097  0.091  0.211
 C         -0.006 -0.016  0.015    0.025 -0.054 -0.026   -0.019  0.045  0.022
 H         -0.079 -0.085 -0.176    0.147  0.140  0.314   -0.123 -0.119 -0.265
 H          0.207 -0.033  0.004   -0.367  0.047 -0.010    0.286 -0.035  0.008
 H         -0.055  0.304  0.003   -0.082  0.465  0.001    0.069 -0.387  0.000
 C         -0.006 -0.015 -0.016   -0.024  0.055 -0.024   -0.019  0.047 -0.021
 H         -0.056  0.305  0.009    0.082 -0.461 -0.016    0.071 -0.392 -0.015
 H          0.208 -0.033  0.004    0.363 -0.046  0.003    0.289 -0.035  0.003
 H         -0.087 -0.094  0.169   -0.159 -0.152  0.297   -0.136 -0.133  0.256
 TransDip   0.092 -0.152 -0.002    0.002  0.001 -0.066   -0.054  0.073 -0.000

 Mode:                43                     44                     45
 Frequency:      3138.07                3143.40                3154.53
 Force Cnst:      6.3961                 6.4312                 6.4798
 Red. Mass:       1.1024                 1.1047                 1.1052
 IR Active:          YES                    YES                    YES
 IR Intens:       45.024                 12.883                 10.198
 Raman Active:       YES                    YES                    YES
               X      Y      Z        X      Y      Z        X      Y      Z
 S         -0.000  0.000  0.000    0.000 -0.000 -0.000    0.000  0.000 -0.000
 H         -0.002  0.001 -0.000   -0.000 -0.000  0.002    0.000 -0.000 -0.001
 C          0.000 -0.003 -0.000    0.000  0.000 -0.001   -0.000 -0.000  0.001
 O          0.000  0.000  0.000   -0.000 -0.000  0.000   -0.000  0.000  0.000
 H         -0.000 -0.000  0.000   -0.000  0.000  0.000   -0.000  0.000  0.000
 H         -0.000 -0.000 -0.000    0.000 -0.000  0.000    0.000 -0.000  0.000
 C         -0.014 -0.076 -0.003    0.002  0.003 -0.092   -0.000 -0.000  0.016
 H         -0.138  0.627  0.011    0.001 -0.005 -0.014   -0.000  0.001  0.003
 H          0.154  0.146 -0.293   -0.300 -0.305  0.548    0.054  0.054 -0.097
 H          0.146  0.136  0.313    0.274  0.277  0.569   -0.050 -0.049 -0.101
 C          0.014 -0.030 -0.014    0.011 -0.000  0.005    0.053  0.010  0.033
 H          0.078  0.075  0.168   -0.027 -0.029 -0.058   -0.174 -0.190 -0.400
 H         -0.200  0.026 -0.005   -0.102  0.016 -0.000   -0.470  0.074 -0.003
 H         -0.046  0.268 -0.001   -0.002  0.017  0.001    0.008 -0.004  0.004
 C          0.014 -0.031  0.013   -0.011  0.000  0.005   -0.058 -0.012  0.032
 H         -0.046  0.269  0.012    0.003 -0.019 -0.000   -0.008  0.003  0.004
 H         -0.200  0.026 -0.003    0.104 -0.016  0.003    0.499 -0.078  0.014
 H          0.085  0.083 -0.162    0.029  0.031 -0.056    0.202  0.220 -0.405
 TransDip   0.015 -0.214 -0.005    0.002  0.004 -0.115   -0.006 -0.003  0.102

 Mode:                46                     47                     48
 Frequency:      3157.01                3868.96                3973.75
 Force Cnst:      6.4873                 9.2184                10.0709
 Red. Mass:       1.1047                 1.0452                 1.0825
 IR Active:          YES                    YES                    YES
 IR Intens:       18.330                 20.546                 82.995
 Raman Active:       YES                    YES                    YES
               X      Y      Z        X      Y      Z        X      Y      Z
 S          0.000  0.000  0.000    0.000 -0.000  0.000    0.000  0.000 -0.000
 H          0.002 -0.002  0.000   -0.004 -0.000 -0.000    0.000  0.000 -0.000
 C         -0.002 -0.000 -0.000   -0.000  0.000  0.000    0.000  0.000 -0.000
 O         -0.000  0.000 -0.000   -0.045  0.021 -0.001    0.002  0.001 -0.071
 H         -0.000  0.000 -0.000    0.373 -0.158 -0.578   -0.401  0.172  0.555
 H         -0.000  0.000  0.000    0.345 -0.181  0.590    0.373 -0.194  0.565
 C          0.000 -0.002 -0.000    0.000 -0.000 -0.000   -0.000 -0.000  0.000
 H         -0.002  0.011  0.000    0.000 -0.000 -0.000    0.000 -0.000  0.000
 H          0.004  0.003 -0.004   -0.000  0.000 -0.000    0.000  0.000 -0.000
 H          0.006  0.005  0.009   -0.000  0.000  0.000   -0.000 -0.000 -0.000
 C         -0.058 -0.009 -0.035    0.000  0.000 -0.000   -0.000  0.000  0.000
 H          0.184  0.200  0.421    0.000  0.000  0.000   -0.000 -0.000 -0.000
 H          0.516 -0.081  0.001   -0.001 -0.000 -0.000    0.001 -0.001 -0.000
 H         -0.007 -0.009 -0.005   -0.000 -0.000 -0.000   -0.000 -0.000 -0.000
 C         -0.056 -0.010  0.030    0.000  0.000  0.000    0.000 -0.000  0.000
 H         -0.006 -0.009  0.004   -0.000 -0.000  0.000    0.000  0.000 -0.000
 H          0.487 -0.077  0.016   -0.001 -0.000  0.000   -0.001  0.001 -0.000
 H          0.190  0.206 -0.380    0.000  0.000 -0.000    0.000  0.000 -0.000
 TransDip  -0.134 -0.028 -0.006    0.135 -0.053  0.002   -0.007 -0.006  0.292

 STANDARD THERMODYNAMIC QUANTITIES AT   298.15 K  AND     1.00 ATM

   This Molecule has  0 Imaginary Frequencies
   Zero point vibrational energy:       97.057 kcal/mol

   Atom    1 Element S  Has Mass   31.97207
   Atom    2 Element H  Has Mass    1.00783
   Atom    3 Element C  Has Mass   12.00000
   Atom    4 Element O  Has Mass   15.99491
   Atom    5 Element H  Has Mass    1.00783
   Atom    6 Element H  Has Mass    1.00783
   Atom    7 Element C  Has Mass   12.00000
   Atom    8 Element H  Has Mass    1.00783
   Atom    9 Element H  Has Mass    1.00783
   Atom   10 Element H  Has Mass    1.00783
   Atom   11 Element C  Has Mass   12.00000
   Atom   12 Element H  Has Mass    1.00783
   Atom   13 Element H  Has Mass    1.00783
   Atom   14 Element H  Has Mass    1.00783
   Atom   15 Element C  Has Mass   12.00000
   Atom   16 Element H  Has Mass    1.00783
   Atom   17 Element H  Has Mass    1.00783
   Atom   18 Element H  Has Mass    1.00783
   Molecular Mass:   108.060940 amu
   Principal axes and moments of inertia in amu*Bohr^2:
                             1           2           3
    Eigenvalues --      587.75848  1202.49501  1384.58011
          X               0.97969    -0.19932    -0.02192
          Y              -0.19982    -0.97955    -0.02346
          Z               0.01679    -0.02736     0.99948
   Rotational Symmetry Number is   1
   The Molecule is an Asymmetric Top
   Translational Enthalpy:        0.889 kcal/mol
   Rotational Enthalpy:           0.889 kcal/mol
   Vibrational Enthalpy:        102.427 kcal/mol
   gas constant (RT):             0.592 kcal/mol
   Translational Entropy:        39.949  cal/mol.K
   Rotational Entropy:           28.372  cal/mol.K
   Vibrational Entropy:          36.128  cal/mol.K

   Total Enthalpy:              104.796 kcal/mol
   Total Entropy:               104.449  cal/mol.K

   Quasi-RRHO corrections using alpha = 4, and omega = 100 cm^-1
   QRRHO-Vib. Enthalpy:         101.291 kcal/mol
   QRRHO-Vib. Entropy:           32.380  cal/mol.K
   QRRHO-Total Enthalpy:        103.661 kcal/mol
   QRRHO-Total Entropy:         100.702  cal/mol.K
 Total job time:  2728.92s(wall), 43415.76s(cpu) 
 Sat Nov 16 01:35:19 2024

        *************************************************************
        *                                                           *
        *  Thank you very much for using Q-Chem.  Have a nice day.  *
        *                                                           *
        *************************************************************


