
Running Job 1 of 2 Me3SiH_COF2_optfreq_B3LYP_svpd.in
qchem Me3SiH_COF2_optfreq_B3LYP_svpd.in_3568721.0 /data/scratch/Me3SiH_COF2_optfreq_B3LYP_svpd20241114031711/ 1
/opt/qchem/6.2.0/exe/qcprog.exe_s Me3SiH_COF2_optfreq_B3LYP_svpd.in_3568721.0 /data/scratch/Me3SiH_COF2_optfreq_B3LYP_svpd20241114031711/
                  Welcome to Q-Chem
     A Quantum Leap Into The Future Of Chemistry


 Q-Chem 6.2, Q-Chem, Inc., Pleasanton, CA (2024)

 E. Epifanovsky,  A. T. B. Gilbert,  Xintian Feng,  Joonho Lee,  Yuezhi Mao,  
 N. Mardirossian,  P. Pokhilko,  A. White,  M. Wormit,  M. P. Coons,  
 A. L. Dempwolff,  Zhengting Gan,  D. Hait,  P. R. Horn,  L. D. Jacobson,  
 I. Kaliman,  J. Kussmann,  A. W. Lange,  Ka Un Lao,  D. S. Levine,  Jie Liu,  
 S. C. McKenzie,  A. F. Morrison,  K. D. Nanda,  F. Plasser,  D. R. Rehn,  
 M. L. Vidal,  Zhi-Qiang You,  Ying Zhu,  Huseyin Aksu,  B. Alam,  
 B. Albrecht,  A. Aldossary,  E. Alguire,  J. H. Andersen,  
 J. E. Arias-Martinez,  V. Athavale,  D. Barton,  K. Begam,  A. Behn,  
 N. Bellonzi,  Y. A. Bernard,  E. J. Berquist,  H. Burton,  A. Carreras,  
 K. Carter-Fenk,  Mathew Chow,  Romit Chakraborty,  Chandrima Chakravarty,  
 Junhan Chen,  A. D. Chien,  K. D. Closser,  V. Cofer-Shabica,  L. Cunha,  
 S. Dasgupta,  Jia Deng,  Joseph Dickinson,  M. de Wergifosse,  
 M. Diedenhofen,  Hainam Do,  Wenjie Dou,  S. Ehlert,  Po-Tung Fang,  
 S. Fatehi,  Qingguo Feng,  Jonathan Fetherolf,  T. Friedhoff,  
 Thomas Froitzheim,  Sarai Folkestad,  B. Ganoe,  J. Gayvert,  Qinghui Ge,  
 G. Gidofalvi,  M. Gimferrer,  M. Goldey,  Montgomery Gray,  J. Gomes,  
 C. Gonzalez-Espinoza,  S. Gulania,  A. Gunina,  J. A. Gyamfi,  
 M. W. D. Hanson-Heine,  P. H. P. Harbach,  A. W. Hauser,  M. F. Herbst,  
 M. Hernandez Vera,  M. Hodecker,  Z. C. Holden,  S. Houck,  Xunkun Huang,  
 Kerwin Hui,  B. C. Huynh,  K. Ikeda,  M. Ivanov,  Nayanthara K. Jayadev,  
 Hyunjun Ji,  Zuxin Jin,  Hanjie Jiang,  Subrata Jana,  B. Kaduk,  
 S. Kaehler,  R. Kang,  K. Khistyaev,  Jaehoon Kim,  Yongbin Kim,  
 P. Klunzinger,  Z. Koczor-Benda,  Joong Hoon Koh,  D. Kosenkov,  
 Saikiran Kotaru,  L. Koulias,  T. Kowalczyk,  C. M. Krauter,  K. Kue,  
 A. Kunitsa,  T. Kus,  A. Landau,  K. V. Lawler,  D. Lefrancois,  S. Lehtola,  
 Rain Li,  Shaozhi Li,  Tao E. Li,  Yi-Pei Li,  Jiashu Liang,  M. Liebenthal,  
 Hung-Hsuan Lin,  You-Sheng Lin,  Fenglai Liu,  Kuan-Yu Liu,  Xiao Liu,  
 M. Loipersberger,  A. Luenser,  C. Malbon,  Aniket Mandal,  Manisha,  
 A. Manjanath,  P. Manohar,  E. Mansoor,  S. F. Manzer,  Shan-Ping Mao,  
 A. V. Marenich,  T. Markovich,  S. Mason,  F. Matz,  S. A. Maurer,  
 Samuel May,  Alexandra McIsaac,  P. F. McLaughlin,  M. F. S. J. Menger,  
 J.-M. Mewes,  S. A. Mewes,  P. Morgante,  Mohammad Mostafanejad,  
 Madhubani Mukherjee,  J. W. Mullinax,  Quyen Nguyen,  Avik Kumar Ojha,  
 K. J. Oosterbaan,  Eno Paenurk,  Xiaoliang Pan,  G. Paran,  V. Parravicini,  
 Alexander C. Paul,  Suranjan K. Paul,  F. Pavosevic,  Zheng Pei,  S. Prager,  
 E. I. Proynov,  E. Ramos,  B. Rana,  A. E. Rask,  A. Rettig,  R. M. Richard,  
 F. Rob,  E. Rossomme,  T. Scheele,  M. Scheurer,  M. Schneider,  
 P. E. Schneider,  Tim K. Schramm,  N. Sergueev,  S. M. Sharada,  
 Hengyuan Shen,  W. Skomorowski,  D. W. Small,  C. J. Stein,  
 Alistair J. Sterling,  Yingli Su,  Yu-Chuan Su,  E. J. Sundstrom,  
 J. Talbot,  Zhen Tao,  J. Thirman,  Hung-Yi Tsai,  T. Tsuchimochi,  
 N. M. Tubman,  C. Utku,  S. P. Veccham,  O. Vydrov,  Rahel Weiss,  
 J. Wenzel,  Jonathan Wong,  J. Witte,  H. Wu,  Yanze Wu,  A. Yamada,  
 Chou-Hsun Yang,  Kun Yao,  S. Yeganeh,  S. R. Yost,  Qi Yu,  A. Zech,  
 F. Zeller,  Chongxiao Zhao,  Igor Ying Zhang,  Xing Zhang,  Yu Zhang,  
 D. Zuev,  A. Aspuru-Guzik,  A. T. Bell,  N. A. Besley,  K. B. Bravaya,  
 B. R. Brooks,  D. Casanova,  Jeng-Da Chai,  Hsing-Ta Chen,  S. Coriani,  
 C. J. Cramer,  A. E. DePrince, III,  R. A. DiStasio Jr.,  A. Dreuw,  
 B. D. Dunietz,  T. R. Furlani,  W. A. Goddard III,  S. Grimme,  
 S. Hammes-Schiffer,  T. Head-Gordon,  W. J. Hehre,  Chao-Ping Hsu,  
 T.-C. Jagau,  Yousung Jung,  A. Klamt,  Jing Kong,  D. S. Lambrecht,  
 Xiangyuan Li,  WanZhen Liang,  N. J. Mayhall,  C. W. McCurdy,  J. B. Neaton,  
 T. Neudecker,  C. Ochsenfeld,  J. A. Parkhill,  R. Peverati,  
 V. A. Rassolov,  Haisheng Ren,  Yihan Shao,  L. V. Slipchenko,  
 R. P. Steele,  J. E. Subotnik,  A. J. W. Thom,  A. Tkatchenko,  
 D. G. Truhlar,  T. Van Voorhis,  Fan Wang,  T. A. Wesolowski,  K. B. Whaley,  
 H. L. Woodcock III,  P. M. Zimmerman,  S. Faraji,  P. M. W. Gill,  
 M. Head-Gordon,  J. M. Herbert,  A. I. Krylov

 Contributors to earlier versions of Q-Chem not listed above: 
 R. D. Adamson,  B. Austin,  R. Baer,  J. Baker,  G. J. O. Beran,  
 K. Brandhorst,  S. T. Brown,  E. F. C. Byrd,  Arup K. Chakraborty,  
 G. K. L. Chan,  Chun-Min Chang,  Yunqing Chen,  C.-L. Cheng,  
 Siu Hung Chien,  D. M. Chipman,  D. L. Crittenden,  H. Dachsel,  
 R. J. Doerksen,  A. D. Dutoi,  R. G. Edgar,  J. Fosso-Tande,  
 L. Fusti-Molnar,  D. Ghosh,  A. Ghysels,  A. Golubeva-Zadorozhnaya,  
 J. Gonthier,  M. S. Gordon,  S. R. Gwaltney,  G. Hawkins,  J. E. Herr,  
 A. Heyden,  S. Hirata,  E. G. Hohenstein,  G. Kedziora,  F. J. Keil,  
 C. Kelley,  Jihan Kim,  R. A. King,  R. Z. Khaliullin,  P. P. Korambath,  
 W. Kurlancheek,  A. Laurent,  A. M. Lee,  M. S. Lee,  S. V. Levchenko,  
 Ching Yeh Lin,  D. Liotard,  E. Livshits,  R. C. Lochan,  I. Lotan,  
 L. A. Martinez-Martinez,  P. E. Maslen,  N. Nair,  D. P. O'Neill,  
 D. Neuhauser,  E. Neuscamman,  C. M. Oana,  R. Olivares-Amaya,  R. Olson,  
 T. M. Perrine,  B. Peters,  P. A. Pieniazek,  A. Prociuk,  Y. M. Rhee,  
 J. Ritchie,  M. A. Rohrdanz,  E. Rosta,  N. J. Russ,  H. F. Schaefer III,  
 M. W. Schmidt,  N. E. Schultz,  S. Sharma,  N. Shenvi,  C. D. Sherrill,  
 A. C. Simmonett,  A. Sodt,  T. Stein,  D. Stuck,  K. S. Thanthiriwatte,  
 V. Vanovschi,  L. Vogt,  Tao Wang,  A. Warshel,  M. A. Watson,  
 C. F. Williams,  Q. Wu,  X. Xu,  Jun Yang,  W. Zhang,  Yan Zhao

   Please cite Q-Chem as follows:
  "Software for the frontiers of quantum chemistry:
   An overview of developments in the Q-Chem 5 package"
   J. Chem. Phys. 155, 084801 (2021)
   https://doi.org/10.1063/5.0055522 (open access)

 Q-Chem 6.2.0 for Intel X86 EM64T Linux

 Parts of Q-Chem use Armadillo 9.900.5 (Nocturnal Misbehaviour).
 http://arma.sourceforge.net/

 Q-Chem begins on Thu Nov 14 03:17:13 2024  

 Host: 
0

     Scratch files written to /data/scratch/Me3SiH_COF2_optfreq_B3LYP_svpd20241114031711//
 May224 |scratch|qcdevops|jenkins|workspace|build_RNUM -1
 Processing $rem in /opt/qchem/6.2.0/config/preferences:
 Processing $rem in /home/ymao/.qchemrc:

 Checking the input file for inconsistencies... 	...done.

--------------------------------------------------------------
User input:
--------------------------------------------------------------
$molecule
0 1
C    -1.51210   -1.71631   0.62009
Si   -1.41437   -0.00461   -0.15706
C    -1.13363   1.30926    1.16393
C    -2.97214   0.37341    -1.14736
H    -0.24841   0.01975    -1.10838
H    -1.65536   -2.49737   -0.14381
H    -0.59028   -1.94888   1.17570
H    -2.35714   -1.77772   1.32571
H    -1.00986   2.30944    0.71832
H    -0.23502   1.08857    1.76109
H    -1.99163   1.35401    1.85488
H    -2.91480   1.36682    -1.62041
H    -3.12947   -0.37034   -1.94479
H    -3.86222   0.36195    -0.49674
C    2.18021    -0.05549   0.02583
O    1.86475    -0.64128   0.99465
F    2.59795    -0.59079   -1.09759
F    2.19402    1.25102    -0.11258
$end

$rem
JOBTYPE  OPT
METHOD  B3LYP
BASIS  DEF2-SVPD
SYMMETRY  FALSE
SYM_IGNORE  TRUE
MEM_TOTAL  8000
MEM_STATIC  2000
BASIS_LIN_DEP_THRESH  6
THRESH  14
SCF_CONVERGENCE  8
FD_MAT_VEC_PROD  FALSE
XC_GRID  000099000590
NL_GRID  1
MAX_SCF_CYCLES  200
GEOM_OPT_MAX_CYCLES  200
GEOM_OPT_DRIVER  OPTIMIZE
$end

--------------------------------------------------------------
 ----------------------------------------------------------------
             Standard Nuclear Orientation (Angstroms)
    I     Atom           X                Y                Z
 ----------------------------------------------------------------
    1      C      -1.5121000000    -1.7163100000     0.6200900000
    2      Si     -1.4143700000    -0.0046100000    -0.1570600000
    3      C      -1.1336300000     1.3092600000     1.1639300000
    4      C      -2.9721400000     0.3734100000    -1.1473600000
    5      H      -0.2484100000     0.0197500000    -1.1083800000
    6      H      -1.6553600000    -2.4973700000    -0.1438100000
    7      H      -0.5902800000    -1.9488800000     1.1757000000
    8      H      -2.3571400000    -1.7777200000     1.3257100000
    9      H      -1.0098600000     2.3094400000     0.7183200000
   10      H      -0.2350200000     1.0885700000     1.7610900000
   11      H      -1.9916300000     1.3540100000     1.8548800000
   12      H      -2.9148000000     1.3668200000    -1.6204100000
   13      H      -3.1294700000    -0.3703400000    -1.9447900000
   14      H      -3.8622200000     0.3619500000    -0.4967400000
   15      C       2.1802100000    -0.0554900000     0.0258300000
   16      O       1.8647500000    -0.6412800000     0.9946500000
   17      F       2.5979500000    -0.5907900000    -1.0975900000
   18      F       2.1940200000     1.2510200000    -0.1125800000
 ----------------------------------------------------------------
 Nuclear Repulsion Energy =         464.07018827 hartrees
 There are       37 alpha and       37 beta electrons
 Requested basis set is def2-SVPD
 There are 109 shells and 253 basis functions

 Total QAlloc Memory Limit   8000 MB
 Mega-Array Size      1956 MB
 MEM_STATIC part      2000 MB

 A cutoff of  1.0D-14 yielded   5680 shell pairs
 There are     30738 function pairs (     34762 Cartesian)
 Smallest overlap matrix eigenvalue = 1.52E-04

 Scale SEOQF with 1.000000e-01/1.000000e-01/1.000000e-01

 Standard Electronic Orientation quadrupole field applied
 Nucleus-field energy     =     0.0000000103 hartrees
 Guess from superposition of atomic densities
 Warning:  Energy on first SCF cycle will be non-variational
 SAD guess density has 74.000000 electrons

 -----------------------------------------------------------------------
  General SCF calculation program by
  Eric Jon Sundstrom, Paul Horn, Yuezhi Mao, Dmitri Zuev, Alec White,
  David Stuck, Shaama M.S., Shane Yost, Joonho Lee, David Small,
  Daniel Levine, Susi Lehtola, Hugh Burton, Evgeny Epifanovsky,
  Bang C. Huynh
 -----------------------------------------------------------------------
 Exchange:     0.2000 Hartree-Fock + 0.0800 Slater + 0.7200 B88
 Correlation:  0.1900 VWN1RPA + 0.8100 LYP
 Using Euler-Maclaurin-Lebedev (99,590) quadrature formula
 using 16 threads for integral computing
 -------------------------------------------------------
 OpenMP Integral computing Module                
 Release: version 1.0, May 2013, Q-Chem Inc. Pittsburgh 
 -------------------------------------------------------
 A restricted SCF calculation will be
 performed using DIIS
 SCF converges when DIIS error is below 1.0e-08
 ---------------------------------------
  Cycle       Energy         DIIS error
 ---------------------------------------
    1    -723.4698448358      3.53e-02  
    2    -722.1879517764      6.74e-03  
    3    -721.7548799142      1.07e-02  
    4    -722.4788369787      2.39e-03  
    5    -722.5152157902      3.73e-04  
    6    -722.5158452691      1.72e-04  
    7    -722.5160180140      3.41e-05  
    8    -722.5160258331      8.28e-06  
    9    -722.5160263642      1.16e-06  
   10    -722.5160263739      3.06e-07  
   11    -722.5160263748      7.92e-08  
   12    -722.5160263748      3.62e-08  
   13    -722.5160263748      1.12e-08  
   14    -722.5160263748      2.20e-09  Convergence criterion met
 ---------------------------------------
 SCF time:   CPU 826.84s  wall 52.00s 
 SCF   energy =  -722.51602637
 Total energy =  -722.51602637
 
 --------------------------------------------------------------
 
                    Orbital Energies (a.u.)
 --------------------------------------------------------------
 
 Alpha MOs
 -- Occupied --
-66.1103 -24.7816 -24.7815 -19.2016 -10.4643 -10.1704 -10.1681 -10.1670
 -5.2723  -3.6349  -3.6341  -3.6340  -1.3367  -1.2630  -1.1157  -0.7105
 -0.7038  -0.6748  -0.6730  -0.6412  -0.5944  -0.5604  -0.4969  -0.4909
 -0.4799  -0.4774  -0.4243  -0.4187  -0.4112  -0.4057  -0.3943  -0.3930
 -0.3848  -0.3716  -0.3170  -0.3094  -0.3087
 -- Virtual --
 -0.0373   0.0001   0.0177   0.0338   0.0396   0.0624   0.0742   0.0797
  0.0833   0.0853   0.0935   0.0962   0.1002   0.1113   0.1170   0.1195
  0.1210   0.1299   0.1327   0.1360   0.1428   0.1521   0.1583   0.1595
  0.1768   0.1828   0.1866   0.2065   0.2083   0.2181   0.2250   0.2280
  0.2407   0.2479   0.2497   0.2573   0.2604   0.2749   0.2896   0.3030
  0.3094   0.3179   0.3255   0.3279   0.3334   0.3363   0.3386   0.3461
  0.3533   0.3612   0.3632   0.3648   0.3698   0.3804   0.3850   0.3924
  0.3933   0.3983   0.4045   0.4099   0.4151   0.4241   0.4270   0.4393
  0.4415   0.4556   0.4633   0.4649   0.4765   0.4815   0.4824   0.4988
  0.5106   0.5115   0.5136   0.5200   0.5245   0.5275   0.5364   0.5414
  0.5444   0.5554   0.5611   0.5761   0.5793   0.5924   0.6121   0.6216
  0.6347   0.6394   0.6511   0.6664   0.6816   0.7011   0.7022   0.7240
  0.7307   0.7436   0.7486   0.7683   0.7691   0.7959   0.8004   0.8204
  0.8241   0.8346   0.8428   0.8561   0.8619   0.8696   0.8870   0.9141
  0.9323   0.9445   0.9507   0.9680   0.9785   0.9854   0.9924   0.9954
  1.0064   1.0138   1.0428   1.0453   1.0604   1.0729   1.0837   1.0926
  1.1437   1.1558   1.1665   1.1786   1.2027   1.2393   1.2796   1.3057
  1.3197   1.3435   1.3728   1.4676   1.4844   1.5323   1.5767   1.5942
  1.6061   1.6237   1.6541   1.6776   1.6905   1.6965   1.7112   1.7135
  1.7251   1.7482   1.7686   1.7927   1.8246   1.8510   1.8736   1.8865
  1.9155   1.9179   1.9221   1.9398   1.9467   1.9560   1.9772   1.9872
  2.0016   2.0293   2.0380   2.0439   2.0531   2.0643   2.0762   2.0994
  2.1187   2.1335   2.1539   2.2046   2.2669   2.2916   2.3547   2.3818
  2.3852   2.4163   2.5022   2.5048   2.5155   2.5201   2.5308   2.5386
  2.7923   2.7929   2.7995   2.8823   2.9065   3.0627   3.0695   3.0740
  3.0829   3.1042   3.1064   3.1209   3.1435   3.2859   3.2922   3.3331
  3.3497   3.4129   3.4246   3.4655   3.5804   3.8239   3.9578   4.0738
 --------------------------------------------------------------
 
          Ground-State Mulliken Net Atomic Charges

     Atom                 Charge (a.u.)
  ----------------------------------------
      1 C                     0.560823
      2 Si                   -0.542962
      3 C                     0.515349
      4 C                     0.554573
      5 H                     0.256218
      6 H                    -0.116877
      7 H                    -0.287224
      8 H                    -0.081421
      9 H                    -0.117535
     10 H                    -0.229863
     11 H                    -0.114444
     12 H                    -0.149607
     13 H                    -0.124265
     14 H                    -0.107268
     15 C                     1.165201
     16 O                    -0.403227
     17 F                    -0.381702
     18 F                    -0.395770
  ----------------------------------------
  Sum of atomic charges =     0.000000

 -----------------------------------------------------------------
                    Cartesian Multipole Moments
 -----------------------------------------------------------------
    Charge (ESU x 10^10)
                -0.0000
    Dipole Moment (Debye)
         X      -0.3560      Y       0.4638      Z      -0.4008
       Tot       0.7089
    Quadrupole Moments (Debye-Ang)
        XX     -53.3888     XY       1.0281     YY     -57.8911
        XZ      -1.1126     YZ       0.7799     ZZ     -58.6548
    Octopole Moments (Debye-Ang^2)
       XXX      56.1895    XXY       1.8914    XYY      12.7453
       YYY       4.6109    XXZ       2.1793    XYZ       0.4667
       YYZ      -5.9848    XZZ      11.2672    YZZ       0.6042
       ZZZ      -6.8229
    Hexadecapole Moments (Debye-Ang^3)
      XXXX   -1388.2860   XXXY      11.5099   XXYY    -311.5130
      XYYY      -0.1009   YYYY    -402.2399   XXXZ     -37.2300
      XXYZ       6.3174   XYYZ      -2.9511   YYYZ       2.9855
      XXZZ    -296.9697   XYZZ       5.8376   YYZZ    -121.3922
      XZZZ     -26.2565   YZZZ       2.8521   ZZZZ    -322.2130
 -----------------------------------------------------------------
 Calculating analytic gradient of the SCF energy
 Gradient of SCF Energy
            1           2           3           4           5           6
    1  -0.0000259  -0.0006562  -0.0003276   0.0017668   0.0009717  -0.0000913
    2   0.0021631  -0.0000784  -0.0016490  -0.0004986   0.0000253  -0.0004159
    3  -0.0009112   0.0011917  -0.0017368   0.0014245  -0.0007471  -0.0007124
            7           8           9          10          11          12
    1   0.0010982  -0.0006843   0.0001162   0.0011207  -0.0007533   0.0002432
    2   0.0000406   0.0001864   0.0007060  -0.0004847  -0.0001579   0.0007839
    3   0.0005052   0.0005109  -0.0005592   0.0004756   0.0004504  -0.0002415
           13          14          15          16          17          18
    1   0.0000507  -0.0005326   0.0005145  -0.0007022  -0.0013923  -0.0007165
    2  -0.0006496  -0.0000502   0.0012373   0.0006059   0.0013084  -0.0030726
    3  -0.0004977   0.0006689  -0.0018295  -0.0010287   0.0026845   0.0003525
 Max gradient component =       3.073E-03
 RMS gradient           =       1.023E-03
 Gradient time:  CPU 171.20 s  wall 10.85 s
 Geometry Optimization Parameters
   NAtoms,    NIC,     NZ,  NCons,   NDum,   NFix, NCnnct, MaxDiis
       18     167       0       0       0       0       0       0


** GEOMETRY OPTIMIZATION IN DELOCALIZED INTERNAL COORDINATES **
   Searching for a Minimum

   Optimization Cycle:   1

                       Coordinates (Angstroms)
     ATOM                X               Y               Z
      1  C        -1.5121000000   -1.7163100000    0.6200900000
      2  Si       -1.4143700000   -0.0046100000   -0.1570600000
      3  C        -1.1336300000    1.3092600000    1.1639300000
      4  C        -2.9721400000    0.3734100000   -1.1473600000
      5  H        -0.2484100000    0.0197500000   -1.1083800000
      6  H        -1.6553600000   -2.4973700000   -0.1438100000
      7  H        -0.5902800000   -1.9488800000    1.1757000000
      8  H        -2.3571400000   -1.7777200000    1.3257100000
      9  H        -1.0098600000    2.3094400000    0.7183200000
     10  H        -0.2350200000    1.0885700000    1.7610900000
     11  H        -1.9916300000    1.3540100000    1.8548800000
     12  H        -2.9148000000    1.3668200000   -1.6204100000
     13  H        -3.1294700000   -0.3703400000   -1.9447900000
     14  H        -3.8622200000    0.3619500000   -0.4967400000
     15  C         2.1802100000   -0.0554900000    0.0258300000
     16  O         1.8647500000   -0.6412800000    0.9946500000
     17  F         2.5979500000   -0.5907900000   -1.0975900000
     18  F         2.1940200000    1.2510200000   -0.1125800000
   Point Group: c1    Number of degrees of freedom:    48


   Energy is   -722.516026375


 Attempting to generate delocalized internal coordinates
 Initial Hessian constructed with Jon Baker's OPTIMIZE code

 48 Hessian modes will be used to form the next step
  Hessian Eigenvalues:
     0.003145    0.003161    0.004183    0.008526    0.016461    0.019353
     0.021372    0.033429    0.035246    0.037540    0.042968    0.045151
     0.049873    0.053156    0.054353    0.054941    0.055115    0.060767
     0.068039    0.072601    0.076298    0.088838    0.092329    0.111776
     0.112844    0.113226    0.118306    0.137835    0.143875    0.160000
     0.160000    0.160000    0.162012    0.194517    0.198687    0.204658
     0.300627    0.319804    0.333944    0.333985    0.334036    0.334697
     0.334760    0.334856    0.334914    0.510438    0.534238    1.099960

 Minimum search - taking simple RFO step
 Searching for Lamda that Minimizes Along All modes
 Value Taken    Lamda =  -0.00020667
 Step Taken.  Stepsize is  0.076977

                             Maximum     Tolerance    Cnvgd?
         Gradient           0.002317      0.000300      NO
         Displacement       0.039724      0.001200      NO
         Energy change     *********      0.000001      NO


 New Cartesian Coordinates Obtained by Inverse Iteration

 Displacement from previous Coordinates is:  0.083944
 ----------------------------------------------------------------
             Standard Nuclear Orientation (Angstroms)
    I     Atom           X                Y                Z
 ----------------------------------------------------------------
    1      C      -1.5130240522    -1.7204182863     0.6223981140
    2      Si     -1.4192980048    -0.0025602142    -0.1538580198
    3      C      -1.1383759363     1.3151546853     1.1704564479
    4      C      -2.9779237264     0.3747438788    -1.1531725756
    5      H      -0.2531144371     0.0217600046    -1.1046399165
    6      H      -1.6543911814    -2.5005766957    -0.1409511925
    7      H      -0.5920357795    -1.9527098916     1.1769395059
    8      H      -2.3564354900    -1.7866613694     1.3274498741
    9      H      -1.0197990264     2.3152343078     0.7266472126
   10      H      -0.2377420446     1.0987320127     1.7638358163
   11      H      -1.9924263844     1.3578636226     1.8642461952
   12      H      -2.9212401505     1.3667409976    -1.6262389822
   13      H      -3.1319485150    -0.3676246525    -1.9508107398
   14      H      -3.8705341900     0.3624858203    -0.5082726422
   15      C       2.1927670182    -0.0591094591     0.0232582927
   16      O       1.8785544003    -0.6435907850     0.9938927679
   17      F       2.6065981029    -0.5977887194    -1.1030391289
   18      F       2.2108693973     1.2497647435    -0.1166610292
 ----------------------------------------------------------------
 Nuclear Repulsion Energy =         462.81343935 hartrees
 There are       37 alpha and       37 beta electrons
 Applying Cartesian multipole field
    Component          Value
    ---------          -----
     (2,0,0)        1.00000E-11
     (0,2,0)        2.00000E-11
     (0,0,2)       -3.00000E-11
 Nucleus-field energy     =     0.0000000104 hartrees
 Requested basis set is def2-SVPD
 There are 109 shells and 253 basis functions
 A cutoff of  1.0D-14 yielded   5674 shell pairs
 There are     30696 function pairs (     34713 Cartesian)
 Smallest overlap matrix eigenvalue = 1.53E-04
 Guess MOs from SCF MO coefficient file

 -----------------------------------------------------------------------
  General SCF calculation program by
  Eric Jon Sundstrom, Paul Horn, Yuezhi Mao, Dmitri Zuev, Alec White,
  David Stuck, Shaama M.S., Shane Yost, Joonho Lee, David Small,
  Daniel Levine, Susi Lehtola, Hugh Burton, Evgeny Epifanovsky,
  Bang C. Huynh
 -----------------------------------------------------------------------
 Exchange:     0.2000 Hartree-Fock + 0.0800 Slater + 0.7200 B88
 Correlation:  0.1900 VWN1RPA + 0.8100 LYP
 Using Euler-Maclaurin-Lebedev (99,590) quadrature formula
 A restricted SCF calculation will be
 performed using DIIS
 SCF converges when DIIS error is below 1.0e-08
 ---------------------------------------
  Cycle       Energy         DIIS error
 ---------------------------------------
    1    -722.5161031965      1.24e-04  
    2    -722.5161702975      1.46e-05  
    3    -722.5161705194      1.49e-05  
    4    -722.5161719593      5.54e-06  
    5    -722.5161721266      1.45e-06  
    6    -722.5161721393      5.88e-07  
    7    -722.5161721411      1.08e-07  
    8    -722.5161721412      3.71e-08  
    9    -722.5161721412      9.65e-09  Convergence criterion met
 ---------------------------------------
 SCF time:   CPU 541.33s  wall 34.00s 
 SCF   energy =  -722.51617214
 Total energy =  -722.51617214
 
 --------------------------------------------------------------
 
                    Orbital Energies (a.u.)
 --------------------------------------------------------------
 
 Alpha MOs
 -- Occupied --
-66.1114 -24.7815 -24.7814 -19.2024 -10.4648 -10.1705 -10.1683 -10.1670
 -5.2732  -3.6357  -3.6349  -3.6348  -1.3351  -1.2621  -1.1158  -0.7100
 -0.7033  -0.6750  -0.6733  -0.6405  -0.5934  -0.5601  -0.4965  -0.4909
 -0.4802  -0.4772  -0.4242  -0.4185  -0.4110  -0.4059  -0.3944  -0.3931
 -0.3851  -0.3722  -0.3169  -0.3095  -0.3088
 -- Virtual --
 -0.0383  -0.0004   0.0176   0.0336   0.0395   0.0624   0.0744   0.0797
  0.0834   0.0853   0.0934   0.0956   0.0996   0.1112   0.1167   0.1194
  0.1209   0.1296   0.1320   0.1355   0.1421   0.1515   0.1580   0.1592
  0.1763   0.1818   0.1859   0.2059   0.2079   0.2169   0.2244   0.2278
  0.2404   0.2465   0.2493   0.2563   0.2599   0.2748   0.2890   0.3025
  0.3084   0.3176   0.3249   0.3277   0.3328   0.3362   0.3383   0.3457
  0.3529   0.3611   0.3630   0.3643   0.3692   0.3802   0.3844   0.3920
  0.3930   0.3979   0.4040   0.4090   0.4151   0.4233   0.4261   0.4386
  0.4410   0.4549   0.4628   0.4645   0.4758   0.4804   0.4822   0.4981
  0.5095   0.5108   0.5123   0.5192   0.5240   0.5268   0.5356   0.5404
  0.5438   0.5546   0.5610   0.5751   0.5784   0.5916   0.6114   0.6210
  0.6332   0.6379   0.6502   0.6657   0.6803   0.6996   0.7006   0.7230
  0.7296   0.7428   0.7472   0.7666   0.7680   0.7951   0.8003   0.8201
  0.8229   0.8342   0.8417   0.8553   0.8615   0.8690   0.8862   0.9135
  0.9315   0.9434   0.9504   0.9680   0.9779   0.9845   0.9919   0.9950
  1.0058   1.0115   1.0418   1.0434   1.0581   1.0712   1.0833   1.0909
  1.1430   1.1542   1.1644   1.1775   1.2003   1.2368   1.2754   1.3030
  1.3195   1.3414   1.3692   1.4664   1.4835   1.5318   1.5759   1.5930
  1.6057   1.6228   1.6548   1.6768   1.6901   1.6956   1.7101   1.7126
  1.7237   1.7478   1.7684   1.7912   1.8239   1.8503   1.8722   1.8851
  1.9153   1.9174   1.9232   1.9414   1.9468   1.9553   1.9761   1.9873
  2.0020   2.0294   2.0371   2.0432   2.0498   2.0615   2.0754   2.0965
  2.1170   2.1308   2.1511   2.2043   2.2696   2.2899   2.3563   2.3837
  2.3871   2.4158   2.5037   2.5067   2.5170   2.5216   2.5314   2.5393
  2.7930   2.7933   2.8004   2.8809   2.9051   3.0638   3.0717   3.0764
  3.0845   3.1056   3.1073   3.1226   3.1451   3.2858   3.2917   3.3317
  3.3483   3.4107   3.4218   3.4629   3.5777   3.8182   3.9538   4.0705
 --------------------------------------------------------------
 
          Ground-State Mulliken Net Atomic Charges

     Atom                 Charge (a.u.)
  ----------------------------------------
      1 C                     0.564240
      2 Si                   -0.516340
      3 C                     0.518042
      4 C                     0.557557
      5 H                     0.255768
      6 H                    -0.120500
      7 H                    -0.289586
      8 H                    -0.087933
      9 H                    -0.121703
     10 H                    -0.232394
     11 H                    -0.118382
     12 H                    -0.154011
     13 H                    -0.128160
     14 H                    -0.111998
     15 C                     1.165415
     16 O                    -0.400350
     17 F                    -0.382857
     18 F                    -0.396808
  ----------------------------------------
  Sum of atomic charges =     0.000000

 -----------------------------------------------------------------
                    Cartesian Multipole Moments
 -----------------------------------------------------------------
    Charge (ESU x 10^10)
                 0.0000
    Dipole Moment (Debye)
         X      -0.3645      Y       0.4596      Z      -0.3890
       Tot       0.7038
    Quadrupole Moments (Debye-Ang)
        XX     -53.3997     XY       1.0087     YY     -57.8823
        XZ      -1.1042     YZ       0.7772     ZZ     -58.6536
    Octopole Moments (Debye-Ang^2)
       XXX      55.7327    XXY       1.8996    XYY      12.5391
       YYY       4.6563    XXZ       2.1326    XYZ       0.4820
       YYZ      -5.8995    XZZ      11.0801    YZZ       0.6541
       ZZZ      -6.7736
    Hexadecapole Moments (Debye-Ang^3)
      XXXX   -1397.7420   XXXY      12.0944   XXYY    -313.5644
      XYYY       0.7315   YYYY    -403.6978   XXXZ     -36.6097
      XXYZ       6.1598   XYYZ      -2.9138   YYYZ       2.8023
      XXZZ    -299.0281   XYZZ       6.0783   YYZZ    -121.9031
      XZZZ     -25.8995   YZZZ       2.6937   ZZZZ    -323.8117
 -----------------------------------------------------------------
 Calculating analytic gradient of the SCF energy
 Gradient of SCF Energy
            1           2           3           4           5           6
    1   0.0001477   0.0001509   0.0001334   0.0001898   0.0008459  -0.0000042
    2   0.0001821   0.0000342  -0.0000872  -0.0000328  -0.0000739  -0.0000522
    3  -0.0001863   0.0007679  -0.0002509   0.0000030  -0.0008352   0.0000680
            7           8           9          10          11          12
    1   0.0002782  -0.0000038   0.0000165   0.0004186  -0.0000189  -0.0000708
    2  -0.0000325   0.0000723   0.0000074  -0.0000861  -0.0000155  -0.0000216
    3   0.0001255  -0.0000305   0.0000688   0.0001243  -0.0000355  -0.0000230
           13          14          15          16          17          18
    1  -0.0000855   0.0000646   0.0001341  -0.0010005  -0.0005604  -0.0006357
    2   0.0000550  -0.0000138   0.0009090  -0.0003542   0.0001221  -0.0006124
    3  -0.0000172   0.0000390  -0.0011957   0.0004197   0.0007096   0.0002484
 Max gradient component =       1.196E-03
 RMS gradient           =       3.808E-04
 Gradient time:  CPU 170.89 s  wall 10.86 s
 Geometry Optimization Parameters
   NAtoms,    NIC,     NZ,  NCons,   NDum,   NFix, NCnnct, MaxDiis
       18     167       0       0       0       0       0       0

 Cartesian Hessian Update
 Hessian updated using BFGS update


** GEOMETRY OPTIMIZATION IN DELOCALIZED INTERNAL COORDINATES **
   Searching for a Minimum

   Optimization Cycle:   2

                       Coordinates (Angstroms)
     ATOM                X               Y               Z
      1  C        -1.5130240522   -1.7204182863    0.6223981140
      2  Si       -1.4192980048   -0.0025602142   -0.1538580198
      3  C        -1.1383759363    1.3151546853    1.1704564479
      4  C        -2.9779237264    0.3747438788   -1.1531725756
      5  H        -0.2531144371    0.0217600046   -1.1046399165
      6  H        -1.6543911814   -2.5005766957   -0.1409511925
      7  H        -0.5920357795   -1.9527098916    1.1769395059
      8  H        -2.3564354900   -1.7866613694    1.3274498741
      9  H        -1.0197990264    2.3152343078    0.7266472126
     10  H        -0.2377420446    1.0987320127    1.7638358163
     11  H        -1.9924263844    1.3578636226    1.8642461952
     12  H        -2.9212401505    1.3667409976   -1.6262389822
     13  H        -3.1319485150   -0.3676246525   -1.9508107398
     14  H        -3.8705341900    0.3624858203   -0.5082726422
     15  C         2.1927670182   -0.0591094591    0.0232582927
     16  O         1.8785544003   -0.6435907850    0.9938927679
     17  F         2.6065981029   -0.5977887194   -1.1030391289
     18  F         2.2108693973    1.2497647435   -0.1166610292
   Point Group: c1    Number of degrees of freedom:    48


   Energy is   -722.516172141

 Hessian updated using BFGS update

 47 Hessian modes will be used to form the next step
  Hessian Eigenvalues:
     0.003101    0.003161    0.004066    0.007868    0.009409    0.019274
     0.021006    0.033411    0.035080    0.037677    0.042703    0.045147
     0.049757    0.053117    0.054341    0.054940    0.055112    0.058966
     0.067733    0.072454    0.074438    0.088808    0.091991    0.111778
     0.112881    0.114247    0.118695    0.137187    0.143214    0.159642
     0.161106    0.161578    0.197127    0.200822    0.226478    0.300654
     0.321844    0.333961    0.334011    0.334341    0.334727    0.334812
     0.334893    0.358333    0.514267    0.547230    1.117749

 Minimum search - taking simple RFO step
 Searching for Lamda that Minimizes Along All modes
 Value Taken    Lamda =  -0.00016069
 Step Taken.  Stepsize is  0.139505

                             Maximum     Tolerance    Cnvgd?
         Gradient           0.000723      0.000300      NO
         Displacement       0.068575      0.001200      NO
         Energy change     -0.000146      0.000001      NO


 New Cartesian Coordinates Obtained by Inverse Iteration

 Displacement from previous Coordinates is:  0.138636
 ----------------------------------------------------------------
             Standard Nuclear Orientation (Angstroms)
    I     Atom           X                Y                Z
 ----------------------------------------------------------------
    1      C      -1.5178534142    -1.7219627558     0.6248158273
    2      Si     -1.4270016077     0.0006253879    -0.1489386385
    3      C      -1.1509878955     1.3212870409     1.1776057889
    4      C      -2.9843577566     0.3752730864    -1.1568064438
    5      H      -0.2599315153     0.0264206489    -1.0973191815
    6      H      -1.6590028108    -2.4990839399    -0.1408119016
    7      H      -0.5962726749    -1.9559887924     1.1765265048
    8      H      -2.3594746910    -1.7934587691     1.3305655857
    9      H      -1.0442243486     2.3218945028     0.7335409875
   10      H      -0.2449276058     1.1140950346     1.7649118954
   11      H      -2.0003545734     1.3570803295     1.8764939994
   12      H      -2.9268696921     1.3666995710    -1.6295720966
   13      H      -3.1312827245    -0.3669627421    -1.9551148079
   14      H      -3.8811687201     0.3611555151    -0.5187668744
   15      C       2.2184809509    -0.0656713951     0.0186102943
   16      O       1.9057347508    -0.6473923512     0.9911261356
   17      F       2.6248457670    -0.6075416294    -1.1116032551
   18      F       2.2451485618     1.2449712579    -0.1237838195
 ----------------------------------------------------------------
 Nuclear Repulsion Energy =         461.10574780 hartrees
 There are       37 alpha and       37 beta electrons
 Applying Cartesian multipole field
    Component          Value
    ---------          -----
     (2,0,0)        1.00000E-11
     (0,2,0)        2.00000E-11
     (0,0,2)       -3.00000E-11
 Nucleus-field energy     =     0.0000000105 hartrees
 Requested basis set is def2-SVPD
 There are 109 shells and 253 basis functions
 A cutoff of  1.0D-14 yielded   5669 shell pairs
 There are     30669 function pairs (     34685 Cartesian)
 Smallest overlap matrix eigenvalue = 1.54E-04
 Guess MOs from SCF MO coefficient file

 -----------------------------------------------------------------------
  General SCF calculation program by
  Eric Jon Sundstrom, Paul Horn, Yuezhi Mao, Dmitri Zuev, Alec White,
  David Stuck, Shaama M.S., Shane Yost, Joonho Lee, David Small,
  Daniel Levine, Susi Lehtola, Hugh Burton, Evgeny Epifanovsky,
  Bang C. Huynh
 -----------------------------------------------------------------------
 Exchange:     0.2000 Hartree-Fock + 0.0800 Slater + 0.7200 B88
 Correlation:  0.1900 VWN1RPA + 0.8100 LYP
 Using Euler-Maclaurin-Lebedev (99,590) quadrature formula
 A restricted SCF calculation will be
 performed using DIIS
 SCF converges when DIIS error is below 1.0e-08
 ---------------------------------------
  Cycle       Energy         DIIS error
 ---------------------------------------
    1    -722.5161505614      1.78e-04  
    2    -722.5162932565      1.56e-05  
    3    -722.5162931179      1.97e-05  
    4    -722.5162953434      6.09e-06  
    5    -722.5162955471      1.98e-06  
    6    -722.5162955710      7.50e-07  
    7    -722.5162955741      1.32e-07  
    8    -722.5162955742      4.04e-08  
    9    -722.5162955742      1.26e-08  
   10    -722.5162955742      4.65e-09  Convergence criterion met
 ---------------------------------------
 SCF time:   CPU 605.36s  wall 38.00s 
 SCF   energy =  -722.51629557
 Total energy =  -722.51629557
 
 --------------------------------------------------------------
 
                    Orbital Energies (a.u.)
 --------------------------------------------------------------
 
 Alpha MOs
 -- Occupied --
-66.1119 -24.7813 -24.7812 -19.2032 -10.4651 -10.1705 -10.1686 -10.1672
 -5.2736  -3.6361  -3.6353  -3.6352  -1.3339  -1.2611  -1.1164  -0.7097
 -0.7029  -0.6751  -0.6735  -0.6398  -0.5926  -0.5598  -0.4961  -0.4911
 -0.4804  -0.4767  -0.4241  -0.4184  -0.4109  -0.4062  -0.3946  -0.3933
 -0.3852  -0.3730  -0.3169  -0.3095  -0.3088
 -- Virtual --
 -0.0389  -0.0010   0.0175   0.0334   0.0392   0.0623   0.0746   0.0796
  0.0834   0.0851   0.0931   0.0951   0.0991   0.1111   0.1164   0.1192
  0.1208   0.1293   0.1313   0.1352   0.1413   0.1508   0.1575   0.1585
  0.1753   0.1806   0.1849   0.2054   0.2074   0.2160   0.2238   0.2273
  0.2398   0.2451   0.2487   0.2553   0.2594   0.2746   0.2882   0.3018
  0.3068   0.3173   0.3240   0.3275   0.3316   0.3358   0.3378   0.3450
  0.3524   0.3609   0.3629   0.3637   0.3685   0.3799   0.3837   0.3913
  0.3928   0.3975   0.4033   0.4076   0.4152   0.4224   0.4249   0.4378
  0.4400   0.4545   0.4621   0.4640   0.4748   0.4787   0.4817   0.4967
  0.5082   0.5097   0.5108   0.5184   0.5233   0.5261   0.5348   0.5390
  0.5431   0.5536   0.5608   0.5740   0.5773   0.5907   0.6104   0.6198
  0.6324   0.6361   0.6494   0.6648   0.6782   0.6972   0.6992   0.7210
  0.7278   0.7406   0.7452   0.7637   0.7664   0.7940   0.8000   0.8196
  0.8202   0.8325   0.8401   0.8541   0.8610   0.8680   0.8855   0.9121
  0.9300   0.9417   0.9503   0.9675   0.9774   0.9836   0.9912   0.9943
  1.0039   1.0082   1.0397   1.0412   1.0552   1.0701   1.0823   1.0888
  1.1421   1.1522   1.1616   1.1765   1.1973   1.2342   1.2684   1.3010
  1.3187   1.3388   1.3660   1.4646   1.4823   1.5312   1.5751   1.5923
  1.6054   1.6222   1.6546   1.6743   1.6882   1.6941   1.7087   1.7118
  1.7214   1.7477   1.7679   1.7885   1.8228   1.8492   1.8698   1.8838
  1.9147   1.9169   1.9240   1.9416   1.9461   1.9543   1.9733   1.9872
  2.0012   2.0288   2.0357   2.0423   2.0467   2.0574   2.0746   2.0940
  2.1148   2.1288   2.1498   2.2020   2.2712   2.2871   2.3570   2.3845
  2.3873   2.4157   2.5042   2.5076   2.5174   2.5222   2.5308   2.5392
  2.7926   2.7934   2.8006   2.8785   2.9026   3.0646   3.0729   3.0772
  3.0842   3.1052   3.1077   3.1234   3.1450   3.2852   3.2904   3.3288
  3.3460   3.4083   3.4191   3.4615   3.5762   3.8131   3.9508   4.0685
 --------------------------------------------------------------
 
          Ground-State Mulliken Net Atomic Charges

     Atom                 Charge (a.u.)
  ----------------------------------------
      1 C                     0.561401
      2 Si                   -0.503446
      3 C                     0.513412
      4 C                     0.558487
      5 H                     0.257626
      6 H                    -0.121008
      7 H                    -0.288109
      8 H                    -0.092988
      9 H                    -0.122363
     10 H                    -0.232376
     11 H                    -0.118818
     12 H                    -0.155070
     13 H                    -0.129012
     14 H                    -0.114601
     15 C                     1.162846
     16 O                    -0.394946
     17 F                    -0.383742
     18 F                    -0.397292
  ----------------------------------------
  Sum of atomic charges =     0.000000

 -----------------------------------------------------------------
                    Cartesian Multipole Moments
 -----------------------------------------------------------------
    Charge (ESU x 10^10)
                 0.0000
    Dipole Moment (Debye)
         X      -0.3700      Y       0.4520      Z      -0.3783
       Tot       0.6960
    Quadrupole Moments (Debye-Ang)
        XX     -53.4118     XY       0.9829     YY     -57.8875
        XZ      -1.1134     YZ       0.7732     ZZ     -58.6560
    Octopole Moments (Debye-Ang^2)
       XXX      55.0082    XXY       1.8939    XYY      12.1841
       YYY       4.8100    XXZ       2.1424    XYZ       0.4982
       YYZ      -5.8346    XZZ      10.7526    YZZ       0.7074
       ZZZ      -6.6755
    Hexadecapole Moments (Debye-Ang^3)
      XXXX   -1416.1371   XXXY      13.1344   XXYY    -317.2267
      XYYY       1.9909   YYYY    -404.9387   XXXZ     -35.4869
      XXYZ       5.9957   XYYZ      -2.5405   YYYZ       2.4558
      XXZZ    -302.8757   XYZZ       6.5641   YYZZ    -122.3662
      XZZZ     -24.8059   YZZZ       2.4050   ZZZZ    -325.3420
 -----------------------------------------------------------------
 Calculating analytic gradient of the SCF energy
 Gradient of SCF Energy
            1           2           3           4           5           6
    1   0.0001854   0.0008061   0.0002805  -0.0006864   0.0005261   0.0000377
    2  -0.0009284   0.0001923   0.0007571   0.0002262  -0.0001647   0.0001650
    3   0.0002313   0.0002775   0.0006597  -0.0007663  -0.0007949   0.0004285
            7           8           9          10          11          12
    1  -0.0001200   0.0002874  -0.0000382   0.0000473   0.0003177  -0.0001661
    2  -0.0000966  -0.0000372  -0.0003478   0.0001348   0.0000895  -0.0003898
    3  -0.0000702  -0.0002492   0.0003348  -0.0000874  -0.0002471   0.0001088
           13          14          15          16          17          18
    1  -0.0000871   0.0002681  -0.0006258  -0.0008493   0.0001906  -0.0003741
    2   0.0003474   0.0000113  -0.0000332  -0.0005993  -0.0005253   0.0011987
    3   0.0002365  -0.0002485   0.0003886   0.0008457  -0.0009803  -0.0000676
 Max gradient component =       1.199E-03
 RMS gradient           =       4.588E-04
 Gradient time:  CPU 173.30 s  wall 10.98 s
 Geometry Optimization Parameters
   NAtoms,    NIC,     NZ,  NCons,   NDum,   NFix, NCnnct, MaxDiis
       18     167       0       0       0       0       0       0

 Cartesian Hessian Update
 Hessian updated using BFGS update


** GEOMETRY OPTIMIZATION IN DELOCALIZED INTERNAL COORDINATES **
   Searching for a Minimum

   Optimization Cycle:   3

                       Coordinates (Angstroms)
     ATOM                X               Y               Z
      1  C        -1.5178534142   -1.7219627558    0.6248158273
      2  Si       -1.4270016077    0.0006253879   -0.1489386385
      3  C        -1.1509878955    1.3212870409    1.1776057889
      4  C        -2.9843577566    0.3752730864   -1.1568064438
      5  H        -0.2599315153    0.0264206489   -1.0973191815
      6  H        -1.6590028108   -2.4990839399   -0.1408119016
      7  H        -0.5962726749   -1.9559887924    1.1765265048
      8  H        -2.3594746910   -1.7934587691    1.3305655857
      9  H        -1.0442243486    2.3218945028    0.7335409875
     10  H        -0.2449276058    1.1140950346    1.7649118954
     11  H        -2.0003545734    1.3570803295    1.8764939994
     12  H        -2.9268696921    1.3666995710   -1.6295720966
     13  H        -3.1312827245   -0.3669627421   -1.9551148079
     14  H        -3.8811687201    0.3611555151   -0.5187668744
     15  C         2.2184809509   -0.0656713951    0.0186102943
     16  O         1.9057347508   -0.6473923512    0.9911261356
     17  F         2.6248457670   -0.6075416294   -1.1116032551
     18  F         2.2451485618    1.2449712579   -0.1237838195
   Point Group: c1    Number of degrees of freedom:    48


   Energy is   -722.516295574

 Hessian updated using BFGS update

 48 Hessian modes will be used to form the next step
  Hessian Eigenvalues:
     0.002411    0.003161    0.003363    0.004834    0.008761    0.019256
     0.020924    0.033438    0.035195    0.037772    0.042643    0.045140
     0.049683    0.053310    0.054308    0.054940    0.055112    0.057927
     0.067630    0.072604    0.073561    0.088615    0.091865    0.111778
     0.112891    0.114300    0.118707    0.136201    0.142570    0.159888
     0.160000    0.160947    0.161737    0.197257    0.201273    0.241867
     0.300659    0.322096    0.333961    0.334025    0.334365    0.334729
     0.334815    0.334893    0.369435    0.516010    0.648947    1.122187

 Minimum search - taking simple RFO step
 Searching for Lamda that Minimizes Along All modes
 Value Taken    Lamda =  -0.00020755
 Step Taken.  Stepsize is  0.250335

                             Maximum     Tolerance    Cnvgd?
         Gradient           0.001175      0.000300      NO
         Displacement       0.121797      0.001200      NO
         Energy change     -0.000123      0.000001      NO


 New Cartesian Coordinates Obtained by Inverse Iteration

 Displacement from previous Coordinates is:  0.246344
 ----------------------------------------------------------------
             Standard Nuclear Orientation (Angstroms)
    I     Atom           X                Y                Z
 ----------------------------------------------------------------
    1      C      -1.5282102798    -1.7209515224     0.6275658067
    2      Si     -1.4408026709     0.0056319374    -0.1411073543
    3      C      -1.1751815571     1.3286617274     1.1865299439
    4      C      -2.9943938365     0.3750546195    -1.1591843706
    5      H      -0.2703422070     0.0357761055    -1.0832809086
    6      H      -1.6705064197    -2.4927371960    -0.1431237884
    7      H      -0.6046549599    -1.9585359706     1.1741513786
    8      H      -2.3672706441    -1.7990491436     1.3352542571
    9      H      -1.0887943991     2.3304164806     0.7408135995
   10      H      -0.2599707895     1.1372878468     1.7644736991
   11      H      -2.0179324703     1.3513789309     1.8935266102
   12      H      -2.9353727066     1.3664445316    -1.6314869030
   13      H      -3.1300675239    -0.3678266066    -1.9587110829
   14      H      -3.8972492091     0.3576587392    -0.5302782657
   15      C       2.2673303415    -0.0763009942     0.0103356654
   16      O       1.9562492914    -0.6531737186     0.9854756020
   17      F       2.6593766143    -0.6234567547    -1.1244371336
   18      F       2.3082934263     1.2351609877    -0.1350367553
 ----------------------------------------------------------------
 Nuclear Repulsion Energy =         458.48796331 hartrees
 There are       37 alpha and       37 beta electrons
 Applying Cartesian multipole field
    Component          Value
    ---------          -----
     (2,0,0)        1.00000E-11
     (0,2,0)        2.00000E-11
     (0,0,2)       -3.00000E-11
 Nucleus-field energy     =     0.0000000108 hartrees
 Requested basis set is def2-SVPD
 There are 109 shells and 253 basis functions
 A cutoff of  1.0D-14 yielded   5660 shell pairs
 There are     30630 function pairs (     34642 Cartesian)
 Smallest overlap matrix eigenvalue = 1.56E-04
 Guess MOs from SCF MO coefficient file

 -----------------------------------------------------------------------
  General SCF calculation program by
  Eric Jon Sundstrom, Paul Horn, Yuezhi Mao, Dmitri Zuev, Alec White,
  David Stuck, Shaama M.S., Shane Yost, Joonho Lee, David Small,
  Daniel Levine, Susi Lehtola, Hugh Burton, Evgeny Epifanovsky,
  Bang C. Huynh
 -----------------------------------------------------------------------
 Exchange:     0.2000 Hartree-Fock + 0.0800 Slater + 0.7200 B88
 Correlation:  0.1900 VWN1RPA + 0.8100 LYP
 Using Euler-Maclaurin-Lebedev (99,590) quadrature formula
 A restricted SCF calculation will be
 performed using DIIS
 SCF converges when DIIS error is below 1.0e-08
 ---------------------------------------
  Cycle       Energy         DIIS error
 ---------------------------------------
    1    -722.5160648766      2.93e-04  
    2    -722.5164465318      2.12e-05  
    3    -722.5164484260      2.21e-05  
    4    -722.5164511198      7.63e-06  
    5    -722.5164514009      2.90e-06  
    6    -722.5164514497      1.24e-06  
    7    -722.5164514588      1.72e-07  
    8    -722.5164514590      5.48e-08  
    9    -722.5164514590      2.02e-08  
   10    -722.5164514590      6.38e-09  Convergence criterion met
 ---------------------------------------
 SCF time:   CPU 592.53s  wall 37.00s 
 SCF   energy =  -722.51645146
 Total energy =  -722.51645146
 
 --------------------------------------------------------------
 
                    Orbital Energies (a.u.)
 --------------------------------------------------------------
 
 Alpha MOs
 -- Occupied --
-66.1119 -24.7812 -24.7811 -19.2039 -10.4653 -10.1704 -10.1688 -10.1674
 -5.2736  -3.6361  -3.6353  -3.6353  -1.3330  -1.2604  -1.1172  -0.7095
 -0.7026  -0.6751  -0.6736  -0.6394  -0.5921  -0.5597  -0.4958  -0.4914
 -0.4804  -0.4764  -0.4239  -0.4184  -0.4110  -0.4067  -0.3948  -0.3934
 -0.3851  -0.3739  -0.3168  -0.3093  -0.3087
 -- Virtual --
 -0.0392  -0.0018   0.0174   0.0331   0.0389   0.0623   0.0747   0.0796
  0.0832   0.0847   0.0924   0.0947   0.0987   0.1109   0.1159   0.1189
  0.1206   0.1291   0.1307   0.1352   0.1402   0.1498   0.1564   0.1577
  0.1734   0.1793   0.1834   0.2051   0.2070   0.2153   0.2229   0.2266
  0.2388   0.2440   0.2477   0.2541   0.2589   0.2742   0.2871   0.3005
  0.3038   0.3172   0.3227   0.3271   0.3298   0.3350   0.3372   0.3437
  0.3516   0.3603   0.3627   0.3631   0.3674   0.3795   0.3829   0.3899
  0.3927   0.3969   0.4025   0.4056   0.4154   0.4211   0.4231   0.4367
  0.4384   0.4542   0.4611   0.4633   0.4728   0.4760   0.4809   0.4944
  0.5060   0.5070   0.5099   0.5175   0.5221   0.5254   0.5335   0.5372
  0.5424   0.5523   0.5605   0.5726   0.5756   0.5894   0.6084   0.6175
  0.6321   0.6335   0.6487   0.6634   0.6740   0.6938   0.6975   0.7170
  0.7246   0.7351   0.7436   0.7589   0.7637   0.7923   0.7990   0.8153
  0.8192   0.8292   0.8378   0.8519   0.8602   0.8666   0.8845   0.9097
  0.9273   0.9388   0.9505   0.9664   0.9762   0.9822   0.9899   0.9936
  0.9997   1.0043   1.0338   1.0397   1.0509   1.0694   1.0804   1.0863
  1.1403   1.1494   1.1571   1.1754   1.1932   1.2309   1.2564   1.2993
  1.3164   1.3352   1.3630   1.4618   1.4806   1.5304   1.5734   1.5919
  1.6047   1.6226   1.6537   1.6695   1.6840   1.6924   1.7073   1.7108
  1.7184   1.7478   1.7658   1.7839   1.8209   1.8469   1.8665   1.8820
  1.9137   1.9165   1.9245   1.9408   1.9451   1.9532   1.9679   1.9870
  1.9994   2.0275   2.0335   2.0408   2.0440   2.0515   2.0738   2.0921
  2.1120   2.1274   2.1494   2.1977   2.2714   2.2824   2.3570   2.3844
  2.3866   2.4156   2.5041   2.5080   2.5170   2.5222   2.5292   2.5386
  2.7914   2.7937   2.8003   2.8746   2.8984   3.0652   3.0731   3.0769
  3.0826   3.1040   3.1072   3.1234   3.1435   3.2837   3.2879   3.3231
  3.3422   3.4061   3.4169   3.4605   3.5754   3.8092   3.9486   4.0668
 --------------------------------------------------------------
 
          Ground-State Mulliken Net Atomic Charges

     Atom                 Charge (a.u.)
  ----------------------------------------
      1 C                     0.552610
      2 Si                   -0.499329
      3 C                     0.502099
      4 C                     0.558405
      5 H                     0.261479
      6 H                    -0.118992
      7 H                    -0.282344
      8 H                    -0.097931
      9 H                    -0.120159
     10 H                    -0.229089
     11 H                    -0.117746
     12 H                    -0.153704
     13 H                    -0.128071
     14 H                    -0.116175
     15 C                     1.156106
     16 O                    -0.386422
     17 F                    -0.383954
     18 F                    -0.396782
  ----------------------------------------
  Sum of atomic charges =     0.000000

 -----------------------------------------------------------------
                    Cartesian Multipole Moments
 -----------------------------------------------------------------
    Charge (ESU x 10^10)
                -0.0000
    Dipole Moment (Debye)
         X      -0.3732      Y       0.4428      Z      -0.3732
       Tot       0.6889
    Quadrupole Moments (Debye-Ang)
        XX     -53.3938     XY       0.9584     YY     -57.9010
        XZ      -1.1607     YZ       0.7683     ZZ     -58.6619
    Octopole Moments (Debye-Ang^2)
       XXX      53.8078    XXY       1.9030    XYY      11.5708
       YYY       5.1164    XXZ       2.1269    XYZ       0.5362
       YYZ      -5.7760    XZZ      10.1614    YZZ       0.7814
       ZZZ      -6.5217
    Hexadecapole Moments (Debye-Ang^3)
      XXXX   -1450.3585   XXXY      14.9999   XXYY    -323.8595
      XYYY       4.1031   YYYY    -406.0699   XXXZ     -33.7013
      XXYZ       5.7853   XYYZ      -1.7567   YYYZ       1.8498
      XXZZ    -309.9013   XYZZ       7.4461   YYZZ    -122.8458
      XZZZ     -22.7487   YZZZ       1.8771   ZZZZ    -327.0165
 -----------------------------------------------------------------
 Calculating analytic gradient of the SCF energy
 Gradient of SCF Energy
            1           2           3           4           5           6
    1   0.0001433   0.0011486   0.0002938  -0.0011803   0.0001081   0.0000542
    2  -0.0013443   0.0003331   0.0010136   0.0003491  -0.0002318   0.0002627
    3   0.0004954  -0.0000564   0.0011190  -0.0010082  -0.0006047   0.0004687
            7           8           9          10          11          12
    1  -0.0002875   0.0003925  -0.0000547  -0.0001805   0.0004290  -0.0001296
    2  -0.0001602  -0.0001103  -0.0004516   0.0002691   0.0001290  -0.0004836
    3  -0.0001763  -0.0003171   0.0003473  -0.0002390  -0.0003254   0.0001699
           13          14          15          16          17          18
    1  -0.0000068   0.0003095  -0.0013576  -0.0003570   0.0007367  -0.0000618
    2   0.0003831   0.0000314  -0.0010612  -0.0003325  -0.0009252   0.0023296
    3   0.0003293  -0.0003923   0.0021635   0.0004529  -0.0021320  -0.0002946
 Max gradient component =       2.330E-03
 RMS gradient           =       7.536E-04
 Gradient time:  CPU 170.12 s  wall 10.76 s
 Geometry Optimization Parameters
   NAtoms,    NIC,     NZ,  NCons,   NDum,   NFix, NCnnct, MaxDiis
       18     167       0       0       0       0       0       0

 Cartesian Hessian Update
 Hessian updated using BFGS update


** GEOMETRY OPTIMIZATION IN DELOCALIZED INTERNAL COORDINATES **
   Searching for a Minimum

   Optimization Cycle:   4

                       Coordinates (Angstroms)
     ATOM                X               Y               Z
      1  C        -1.5282102798   -1.7209515224    0.6275658067
      2  Si       -1.4408026709    0.0056319374   -0.1411073543
      3  C        -1.1751815571    1.3286617274    1.1865299439
      4  C        -2.9943938365    0.3750546195   -1.1591843706
      5  H        -0.2703422070    0.0357761055   -1.0832809086
      6  H        -1.6705064197   -2.4927371960   -0.1431237884
      7  H        -0.6046549599   -1.9585359706    1.1741513786
      8  H        -2.3672706441   -1.7990491436    1.3352542571
      9  H        -1.0887943991    2.3304164806    0.7408135995
     10  H        -0.2599707895    1.1372878468    1.7644736991
     11  H        -2.0179324703    1.3513789309    1.8935266102
     12  H        -2.9353727066    1.3664445316   -1.6314869030
     13  H        -3.1300675239   -0.3678266066   -1.9587110829
     14  H        -3.8972492091    0.3576587392   -0.5302782657
     15  C         2.2673303415   -0.0763009942    0.0103356654
     16  O         1.9562492914   -0.6531737186    0.9854756020
     17  F         2.6593766143   -0.6234567547   -1.1244371336
     18  F         2.3082934263    1.2351609877   -0.1350367553
   Point Group: c1    Number of degrees of freedom:    48


   Energy is   -722.516451459

 Hessian updated using BFGS update

 48 Hessian modes will be used to form the next step
  Hessian Eigenvalues:
     0.001433    0.003162    0.003244    0.004527    0.008749    0.019240
     0.020890    0.033488    0.035267    0.037816    0.042613    0.045136
     0.049567    0.053399    0.054374    0.054942    0.055112    0.057445
     0.067601    0.072697    0.073346    0.088509    0.091803    0.111789
     0.112893    0.114135    0.118780    0.135675    0.142276    0.159999
     0.160212    0.161189    0.162159    0.197230    0.201158    0.237716
     0.300660    0.321978    0.333961    0.334026    0.334374    0.334729
     0.334814    0.334893    0.363852    0.515781    0.650870    1.117723

 Minimum search - taking simple RFO step
 Searching for Lamda that Minimizes Along All modes
 Value Taken    Lamda =  -0.00018129
 Step Taken.  Stepsize is  0.288942

                             Maximum     Tolerance    Cnvgd?
         Gradient           0.002064      0.000300      NO
         Displacement       0.138342      0.001200      NO
         Energy change     -0.000156      0.000001      NO


 New Cartesian Coordinates Obtained by Inverse Iteration

 Displacement from previous Coordinates is:  0.285218
 ----------------------------------------------------------------
             Standard Nuclear Orientation (Angstroms)
    I     Atom           X                Y                Z
 ----------------------------------------------------------------
    1      C      -1.5414482861    -1.7170613078     0.6294833440
    2      Si     -1.4566845759     0.0107110656    -0.1336442526
    3      C      -1.2042485097     1.3339986686     1.1940136097
    4      C      -3.0050455010     0.3740287386    -1.1596472488
    5      H      -0.2800521770     0.0475808037    -1.0664673533
    6      H      -1.6853241203    -2.4841730464    -0.1461748742
    7      H      -0.6154650470    -1.9576936400     1.1712473706
    8      H      -2.3784542322    -1.8000507521     1.3393763947
    9      H      -1.1386532088     2.3372594643     0.7470449806
   10      H      -0.2802458109     1.1585275630     1.7633555537
   11      H      -2.0411652790     1.3421484602     1.9086719198
   12      H      -2.9453224072     1.3659365125    -1.6315821897
   13      H      -3.1309063219    -0.3697882038    -1.9603984909
   14      H      -3.9128279286     0.3531243108    -0.5376487549
   15      C       2.3264310289    -0.0871961173     0.0003103959
   16      O       2.0161624910    -0.6585806245     0.9784758641
   17      F       2.7010767377    -0.6402310953    -1.1371551456
   18      F       2.3826731479     1.2228992001    -0.1477811230
 ----------------------------------------------------------------
 Nuclear Repulsion Energy =         455.81874246 hartrees
 There are       37 alpha and       37 beta electrons
 Applying Cartesian multipole field
    Component          Value
    ---------          -----
     (2,0,0)        1.00000E-11
     (0,2,0)        2.00000E-11
     (0,0,2)       -3.00000E-11
 Nucleus-field energy     =     0.0000000112 hartrees
 Requested basis set is def2-SVPD
 There are 109 shells and 253 basis functions
 A cutoff of  1.0D-14 yielded   5652 shell pairs
 There are     30588 function pairs (     34596 Cartesian)
 Smallest overlap matrix eigenvalue = 1.57E-04
 Guess MOs from SCF MO coefficient file

 -----------------------------------------------------------------------
  General SCF calculation program by
  Eric Jon Sundstrom, Paul Horn, Yuezhi Mao, Dmitri Zuev, Alec White,
  David Stuck, Shaama M.S., Shane Yost, Joonho Lee, David Small,
  Daniel Levine, Susi Lehtola, Hugh Burton, Evgeny Epifanovsky,
  Bang C. Huynh
 -----------------------------------------------------------------------
 Exchange:     0.2000 Hartree-Fock + 0.0800 Slater + 0.7200 B88
 Correlation:  0.1900 VWN1RPA + 0.8100 LYP
 Using Euler-Maclaurin-Lebedev (99,590) quadrature formula
 A restricted SCF calculation will be
 performed using DIIS
 SCF converges when DIIS error is below 1.0e-08
 ---------------------------------------
  Cycle       Energy         DIIS error
 ---------------------------------------
    1    -722.5161462132      3.14e-04  
    2    -722.5165772634      2.28e-05  
    3    -722.5165795803      2.36e-05  
    4    -722.5165824939      7.76e-06  
    5    -722.5165827848      2.73e-06  
    6    -722.5165828256      1.42e-06  
    7    -722.5165828375      1.49e-07  
    8    -722.5165828376      5.99e-08  
    9    -722.5165828377      2.10e-08  
   10    -722.5165828377      4.75e-09  Convergence criterion met
 ---------------------------------------
 SCF time:   CPU 587.13s  wall 37.00s 
 SCF   energy =  -722.51658284
 Total energy =  -722.51658284
 
 --------------------------------------------------------------
 
                    Orbital Energies (a.u.)
 --------------------------------------------------------------
 
 Alpha MOs
 -- Occupied --
-66.1114 -24.7813 -24.7812 -19.2040 -10.4653 -10.1703 -10.1689 -10.1675
 -5.2732  -3.6357  -3.6349  -3.6348  -1.3334  -1.2606  -1.1174  -0.7096
 -0.7028  -0.6750  -0.6737  -0.6396  -0.5922  -0.5598  -0.4959  -0.4914
 -0.4802  -0.4765  -0.4235  -0.4183  -0.4111  -0.4071  -0.3949  -0.3936
 -0.3849  -0.3742  -0.3166  -0.3092  -0.3087
 -- Virtual --
 -0.0391  -0.0024   0.0173   0.0330   0.0387   0.0623   0.0749   0.0796
  0.0830   0.0843   0.0914   0.0946   0.0986   0.1108   0.1155   0.1185
  0.1206   0.1291   0.1303   0.1354   0.1395   0.1489   0.1552   0.1570
  0.1713   0.1783   0.1818   0.2051   0.2069   0.2150   0.2223   0.2260
  0.2376   0.2438   0.2466   0.2533   0.2585   0.2739   0.2860   0.2991
  0.3002   0.3170   0.3215   0.3264   0.3284   0.3339   0.3368   0.3425
  0.3509   0.3595   0.3625   0.3629   0.3662   0.3792   0.3824   0.3883
  0.3926   0.3965   0.4017   0.4038   0.4158   0.4199   0.4214   0.4356
  0.4367   0.4541   0.4600   0.4627   0.4696   0.4741   0.4802   0.4915
  0.5030   0.5044   0.5092   0.5169   0.5211   0.5249   0.5319   0.5363
  0.5421   0.5512   0.5600   0.5711   0.5740   0.5883   0.6056   0.6146
  0.6308   0.6326   0.6483   0.6622   0.6685   0.6913   0.6963   0.7124
  0.7208   0.7285   0.7429   0.7535   0.7607   0.7909   0.7972   0.8110
  0.8189   0.8254   0.8353   0.8495   0.8594   0.8653   0.8836   0.9067
  0.9242   0.9363   0.9508   0.9648   0.9736   0.9807   0.9885   0.9931
  0.9959   1.0009   1.0272   1.0380   1.0469   1.0695   1.0775   1.0846
  1.1362   1.1471   1.1531   1.1745   1.1896   1.2271   1.2440   1.2985
  1.3123   1.3326   1.3615   1.4592   1.4789   1.5292   1.5709   1.5924
  1.6033   1.6240   1.6524   1.6651   1.6796   1.6907   1.7067   1.7101
  1.7162   1.7475   1.7612   1.7794   1.8192   1.8435   1.8638   1.8804
  1.9133   1.9165   1.9240   1.9384   1.9447   1.9525   1.9621   1.9866
  1.9975   2.0261   2.0314   2.0389   2.0430   2.0471   2.0730   2.0917
  2.1099   2.1274   2.1497   2.1935   2.2689   2.2776   2.3563   2.3833
  2.3854   2.4149   2.5032   2.5077   2.5160   2.5216   2.5273   2.5379
  2.7901   2.7935   2.7997   2.8703   2.8938   3.0649   3.0721   3.0757
  3.0802   3.1022   3.1060   3.1222   3.1413   3.2812   3.2852   3.3160
  3.3381   3.4057   3.4162   3.4604   3.5755   3.8093   3.9486   4.0663
 --------------------------------------------------------------
 
          Ground-State Mulliken Net Atomic Charges

     Atom                 Charge (a.u.)
  ----------------------------------------
      1 C                     0.540879
      2 Si                   -0.504510
      3 C                     0.489089
      4 C                     0.557241
      5 H                     0.265660
      6 H                    -0.116327
      7 H                    -0.273446
      8 H                    -0.100333
      9 H                    -0.117017
     10 H                    -0.222373
     11 H                    -0.116752
     12 H                    -0.150850
     13 H                    -0.126720
     14 H                    -0.115163
     15 C                     1.146865
     16 O                    -0.378716
     17 F                    -0.382803
     18 F                    -0.394725
  ----------------------------------------
  Sum of atomic charges =     0.000000

 -----------------------------------------------------------------
                    Cartesian Multipole Moments
 -----------------------------------------------------------------
    Charge (ESU x 10^10)
                -0.0000
    Dipole Moment (Debye)
         X      -0.3705      Y       0.4369      Z      -0.3828
       Tot       0.6890
    Quadrupole Moments (Debye-Ang)
        XX     -53.3297     XY       0.9536     YY     -57.9145
        XZ      -1.2463     YZ       0.7659     ZZ     -58.6691
    Octopole Moments (Debye-Ang^2)
       XXX      52.4980    XXY       1.9413    XYY      10.8749
       YYY       5.4809    XXZ       2.0340    XYZ       0.5968
       YYZ      -5.7305    XZZ       9.4609    YZZ       0.8533
       ZZZ      -6.3303
    Hexadecapole Moments (Debye-Ang^3)
      XXXX   -1491.3730   XXXY      17.1589   XXYY    -331.6705
      XYYY       6.4613   YYYY    -406.3779   XXXZ     -31.8430
      XXYZ       5.6257   XYYZ      -0.7807   YYYZ       1.2199
      XXZZ    -318.2352   XYZZ       8.4526   YYZZ    -123.1420
      XZZZ     -20.2711   YZZZ       1.2847   ZZZZ    -328.2686
 -----------------------------------------------------------------
 Calculating analytic gradient of the SCF energy
 Gradient of SCF Energy
            1           2           3           4           5           6
    1   0.0000563   0.0008778   0.0002088  -0.0009537  -0.0001449   0.0000329
    2  -0.0008206   0.0003239   0.0005576   0.0002562  -0.0002205   0.0002039
    3   0.0004260  -0.0000262   0.0007988  -0.0005663  -0.0003405   0.0002041
            7           8           9          10          11          12
    1  -0.0001602   0.0002517  -0.0000476  -0.0001556   0.0002609  -0.0000056
    2  -0.0001719  -0.0001125  -0.0002800   0.0002578   0.0000853  -0.0002815
    3  -0.0001693  -0.0002000   0.0001393  -0.0002696  -0.0002066   0.0001215
           13          14          15          16          17          18
    1   0.0000914   0.0001679  -0.0012979   0.0000418   0.0006739   0.0001022
    2   0.0001815   0.0000322  -0.0011418   0.0000026  -0.0006394   0.0017672
    3   0.0002147  -0.0003167   0.0023659  -0.0000653  -0.0017948  -0.0003149
 Max gradient component =       2.366E-03
 RMS gradient           =       6.250E-04
 Gradient time:  CPU 173.70 s  wall 11.07 s
 Geometry Optimization Parameters
   NAtoms,    NIC,     NZ,  NCons,   NDum,   NFix, NCnnct, MaxDiis
       18     167       0       0       0       0       0       0

 Cartesian Hessian Update
 Hessian updated using BFGS update


** GEOMETRY OPTIMIZATION IN DELOCALIZED INTERNAL COORDINATES **
   Searching for a Minimum

   Optimization Cycle:   5

                       Coordinates (Angstroms)
     ATOM                X               Y               Z
      1  C        -1.5414482861   -1.7170613078    0.6294833440
      2  Si       -1.4566845759    0.0107110656   -0.1336442526
      3  C        -1.2042485097    1.3339986686    1.1940136097
      4  C        -3.0050455010    0.3740287386   -1.1596472488
      5  H        -0.2800521770    0.0475808037   -1.0664673533
      6  H        -1.6853241203   -2.4841730464   -0.1461748742
      7  H        -0.6154650470   -1.9576936400    1.1712473706
      8  H        -2.3784542322   -1.8000507521    1.3393763947
      9  H        -1.1386532088    2.3372594643    0.7470449806
     10  H        -0.2802458109    1.1585275630    1.7633555537
     11  H        -2.0411652790    1.3421484602    1.9086719198
     12  H        -2.9453224072    1.3659365125   -1.6315821897
     13  H        -3.1309063219   -0.3697882038   -1.9603984909
     14  H        -3.9128279286    0.3531243108   -0.5376487549
     15  C         2.3264310289   -0.0871961173    0.0003103959
     16  O         2.0161624910   -0.6585806245    0.9784758641
     17  F         2.7010767377   -0.6402310953   -1.1371551456
     18  F         2.3826731479    1.2228992001   -0.1477811230
   Point Group: c1    Number of degrees of freedom:    48


   Energy is   -722.516582838

 Hessian updated using BFGS update

 48 Hessian modes will be used to form the next step
  Hessian Eigenvalues:
     0.001051    0.003161    0.003220    0.004404    0.008760    0.019200
     0.020844    0.033490    0.035245    0.037581    0.042582    0.045135
     0.049251    0.053243    0.054441    0.054943    0.055112    0.057115
     0.067582    0.072698    0.073381    0.088421    0.091760    0.111785
     0.112881    0.114138    0.119086    0.135446    0.142007    0.160000
     0.160144    0.161400    0.162365    0.197318    0.200968    0.228570
     0.300630    0.321749    0.333961    0.334028    0.334388    0.334729
     0.334817    0.334893    0.358003    0.515163    0.573059    1.120912

 Minimum search - taking simple RFO step
 Searching for Lamda that Minimizes Along All modes
 Value Taken    Lamda =  -0.00009405
 Step Taken.  Stepsize is  0.233315

                             Maximum     Tolerance    Cnvgd?
         Gradient           0.001721      0.000300      NO
         Displacement       0.108083      0.001200      NO
         Energy change     -0.000131      0.000001      NO


 New Cartesian Coordinates Obtained by Inverse Iteration

 Displacement from previous Coordinates is:  0.231970
 ----------------------------------------------------------------
             Standard Nuclear Orientation (Angstroms)
    I     Atom           X                Y                Z
 ----------------------------------------------------------------
    1      C      -1.5525120352    -1.7125099190     0.6304189405
    2      Si     -1.4691837725     0.0144887127    -0.1294995678
    3      C      -1.2285566771     1.3362383228     1.1991387978
    4      C      -3.0132072344     0.3729593877    -1.1599423871
    5      H      -0.2858093394     0.0582805204    -1.0530733769
    6      H      -1.6962326873    -2.4784118755    -0.1470890957
    7      H      -0.6252449255    -1.9532446976     1.1707388701
    8      H      -2.3890926791    -1.7972514751     1.3411680542
    9      H      -1.1757014945     2.3412399493     0.7532278940
   10      H      -0.2997706397     1.1701740122     1.7643806723
   11      H      -2.0628026724     1.3335700175     1.9176133836
   12      H      -2.9547237254     1.3655114359    -1.6316715678
   13      H      -3.1347949478    -0.3714108185    -1.9614088160
   14      H      -3.9228909789     0.3494565747    -0.5401409498
   15      C       2.3759237652    -0.0949714883    -0.0089090604
   16      O       2.0655607894    -0.6615976080     0.9721793767
   17      F       2.7356306877    -0.6538484462    -1.1465524830
   18      F       2.4439085670     1.2127673949    -0.1590986848
 ----------------------------------------------------------------
 Nuclear Repulsion Energy =         453.82120641 hartrees
 There are       37 alpha and       37 beta electrons
 Applying Cartesian multipole field
    Component          Value
    ---------          -----
     (2,0,0)        1.00000E-11
     (0,2,0)        2.00000E-11
     (0,0,2)       -3.00000E-11
 Nucleus-field energy     =     0.0000000115 hartrees
 Requested basis set is def2-SVPD
 There are 109 shells and 253 basis functions
 A cutoff of  1.0D-14 yielded   5638 shell pairs
 There are     30520 function pairs (     34524 Cartesian)
 Smallest overlap matrix eigenvalue = 1.58E-04
 Guess MOs from SCF MO coefficient file

 -----------------------------------------------------------------------
  General SCF calculation program by
  Eric Jon Sundstrom, Paul Horn, Yuezhi Mao, Dmitri Zuev, Alec White,
  David Stuck, Shaama M.S., Shane Yost, Joonho Lee, David Small,
  Daniel Levine, Susi Lehtola, Hugh Burton, Evgeny Epifanovsky,
  Bang C. Huynh
 -----------------------------------------------------------------------
 Exchange:     0.2000 Hartree-Fock + 0.0800 Slater + 0.7200 B88
 Correlation:  0.1900 VWN1RPA + 0.8100 LYP
 Using Euler-Maclaurin-Lebedev (99,590) quadrature formula
 A restricted SCF calculation will be
 performed using DIIS
 SCF converges when DIIS error is below 1.0e-08
 ---------------------------------------
  Cycle       Energy         DIIS error
 ---------------------------------------
    1    -722.5163892327      2.42e-04  
    2    -722.5166404682      2.10e-05  
    3    -722.5166397079      2.87e-05  
    4    -722.5166440545      7.26e-06  
    5    -722.5166443399      2.81e-06  
    6    -722.5166443818      1.02e-06  
    7    -722.5166443878      1.25e-07  
    8    -722.5166443879      5.30e-08  
    9    -722.5166443880      1.66e-08  
   10    -722.5166443880      3.96e-09  Convergence criterion met
 ---------------------------------------
 SCF time:   CPU 576.34s  wall 36.00s 
 SCF   energy =  -722.51664439
 Total energy =  -722.51664439
 
 --------------------------------------------------------------
 
                    Orbital Energies (a.u.)
 --------------------------------------------------------------
 
 Alpha MOs
 -- Occupied --
-66.1107 -24.7816 -24.7815 -19.2035 -10.4651 -10.1702 -10.1688 -10.1675
 -5.2727  -3.6352  -3.6344  -3.6343  -1.3345  -1.2615  -1.1170  -0.7097
 -0.7033  -0.6748  -0.6736  -0.6402  -0.5928  -0.5600  -0.4964  -0.4913
 -0.4800  -0.4769  -0.4231  -0.4182  -0.4112  -0.4074  -0.3949  -0.3936
 -0.3847  -0.3739  -0.3163  -0.3092  -0.3087
 -- Virtual --
 -0.0387  -0.0028   0.0173   0.0329   0.0385   0.0622   0.0749   0.0797
  0.0829   0.0842   0.0905   0.0946   0.0987   0.1108   0.1153   0.1181
  0.1206   0.1291   0.1302   0.1356   0.1392   0.1481   0.1543   0.1567
  0.1698   0.1778   0.1806   0.2052   0.2070   0.2150   0.2221   0.2256
  0.2367   0.2443   0.2458   0.2526   0.2585   0.2739   0.2851   0.2972
  0.2979   0.3167   0.3205   0.3256   0.3279   0.3330   0.3365   0.3417
  0.3505   0.3588   0.3619   0.3630   0.3656   0.3788   0.3822   0.3869
  0.3924   0.3963   0.4013   0.4027   0.4160   0.4189   0.4204   0.4345
  0.4358   0.4541   0.4589   0.4623   0.4667   0.4732   0.4797   0.4890
  0.5005   0.5029   0.5087   0.5166   0.5205   0.5247   0.5308   0.5359
  0.5420   0.5505   0.5595   0.5698   0.5727   0.5874   0.6028   0.6125
  0.6287   0.6332   0.6479   0.6615   0.6640   0.6899   0.6953   0.7091
  0.7172   0.7239   0.7428   0.7491   0.7583   0.7899   0.7952   0.8087
  0.8187   0.8226   0.8335   0.8475   0.8586   0.8647   0.8826   0.9042
  0.9218   0.9351   0.9506   0.9634   0.9704   0.9796   0.9873   0.9922
  0.9944   0.9985   1.0225   1.0365   1.0442   1.0696   1.0753   1.0837
  1.1307   1.1463   1.1509   1.1741   1.1873   1.2225   1.2370   1.2981
  1.3087   1.3314   1.3609   1.4577   1.4776   1.5279   1.5687   1.5929
  1.6022   1.6251   1.6513   1.6627   1.6768   1.6895   1.7063   1.7101
  1.7149   1.7468   1.7556   1.7766   1.8181   1.8405   1.8623   1.8792
  1.9133   1.9166   1.9230   1.9361   1.9450   1.9521   1.9582   1.9860
  1.9961   2.0252   2.0298   2.0371   2.0418   2.0467   2.0721   2.0920
  2.1090   2.1279   2.1494   2.1907   2.2656   2.2738   2.3553   2.3822
  2.3844   2.4135   2.5024   2.5072   2.5149   2.5210   2.5259   2.5374
  2.7893   2.7929   2.7991   2.8670   2.8904   3.0639   3.0706   3.0745
  3.0785   3.1007   3.1050   3.1207   3.1395   3.2788   3.2831   3.3099
  3.3348   3.4067   3.4167   3.4604   3.5758   3.8120   3.9496   4.0662
 --------------------------------------------------------------
 
          Ground-State Mulliken Net Atomic Charges

     Atom                 Charge (a.u.)
  ----------------------------------------
      1 C                     0.531575
      2 Si                   -0.510353
      3 C                     0.479989
      4 C                     0.555854
      5 H                     0.268316
      6 H                    -0.115808
      7 H                    -0.265149
      8 H                    -0.100255
      9 H                    -0.115887
     10 H                    -0.215171
     11 H                    -0.116728
     12 H                    -0.148848
     13 H                    -0.126834
     14 H                    -0.112251
     15 C                     1.138945
     16 O                    -0.374062
     17 F                    -0.381048
     18 F                    -0.392284
  ----------------------------------------
  Sum of atomic charges =     0.000000

 -----------------------------------------------------------------
                    Cartesian Multipole Moments
 -----------------------------------------------------------------
    Charge (ESU x 10^10)
                -0.0000
    Dipole Moment (Debye)
         X      -0.3648      Y       0.4350      Z      -0.4024
       Tot       0.6959
    Quadrupole Moments (Debye-Ang)
        XX     -53.2485     XY       0.9650     YY     -57.9212
        XZ      -1.3352     YZ       0.7661     ZZ     -58.6742
    Octopole Moments (Debye-Ang^2)
       XXX      51.4724    XXY       1.9927    XYY      10.3106
       YYY       5.7685    XXZ       1.8914    XYZ       0.6582
       YYZ      -5.6756    XZZ       8.8735    YZZ       0.9049
       ZZZ      -6.1085
    Hexadecapole Moments (Debye-Ang^3)
      XXXX   -1525.5250   XXXY      18.9417   XXYY    -338.1094
      XYYY       8.3871   YYYY    -405.9651   XXXZ     -30.4452
      XXYZ       5.5404   XYYZ       0.0489   YYYZ       0.7787
      XXZZ    -325.1528   XYZZ       9.2500   YYZZ    -123.2788
      XZZZ     -18.1367   YZZZ       0.8093   ZZZZ    -329.1538
 -----------------------------------------------------------------
 Calculating analytic gradient of the SCF energy
 Gradient of SCF Energy
            1           2           3           4           5           6
    1  -0.0000220   0.0003051   0.0000632  -0.0003544  -0.0001665  -0.0000014
    2  -0.0000678   0.0001699   0.0000010   0.0000754  -0.0001517   0.0000804
    3   0.0001887   0.0001381   0.0002089   0.0000147  -0.0001514  -0.0000570
            7           8           9          10          11          12
    1   0.0000380   0.0000525  -0.0000335   0.0000213   0.0000463   0.0000694
    2  -0.0001312  -0.0000732  -0.0000519   0.0001839   0.0000227  -0.0000338
    3  -0.0001246  -0.0000434  -0.0000493  -0.0002058  -0.0000324   0.0000297
           13          14          15          16          17          18
    1   0.0001090   0.0000051  -0.0005736   0.0001421   0.0002561   0.0000429
    2  -0.0000191   0.0000181  -0.0003494   0.0000299  -0.0001553   0.0004521
    3   0.0000405  -0.0001444   0.0010262  -0.0001782  -0.0005694  -0.0000909
 Max gradient component =       1.026E-03
 RMS gradient           =       2.278E-04
 Gradient time:  CPU 165.91 s  wall 10.56 s
 Geometry Optimization Parameters
   NAtoms,    NIC,     NZ,  NCons,   NDum,   NFix, NCnnct, MaxDiis
       18     167       0       0       0       0       0       0

 Cartesian Hessian Update
 Hessian updated using BFGS update


** GEOMETRY OPTIMIZATION IN DELOCALIZED INTERNAL COORDINATES **
   Searching for a Minimum

   Optimization Cycle:   6

                       Coordinates (Angstroms)
     ATOM                X               Y               Z
      1  C        -1.5525120352   -1.7125099190    0.6304189405
      2  Si       -1.4691837725    0.0144887127   -0.1294995678
      3  C        -1.2285566771    1.3362383228    1.1991387978
      4  C        -3.0132072344    0.3729593877   -1.1599423871
      5  H        -0.2858093394    0.0582805204   -1.0530733769
      6  H        -1.6962326873   -2.4784118755   -0.1470890957
      7  H        -0.6252449255   -1.9532446976    1.1707388701
      8  H        -2.3890926791   -1.7972514751    1.3411680542
      9  H        -1.1757014945    2.3412399493    0.7532278940
     10  H        -0.2997706397    1.1701740122    1.7643806723
[...]
 H         -0.082  0.254 -0.161    0.063  0.224  0.072   -0.064  0.422 -0.141
 H          0.122  0.064  0.109    0.058  0.232  0.376   -0.140  0.103  0.150
 H          0.048 -0.209 -0.219   -0.033 -0.326 -0.155   -0.097  0.075  0.225
 H          0.101  0.160  0.258    0.040 -0.236 -0.027   -0.097 -0.312 -0.301
 H         -0.321 -0.031 -0.304    0.095 -0.022 -0.015   -0.235  0.052  0.008
 H          0.312 -0.187  0.255    0.100  0.016 -0.003   -0.235 -0.031 -0.006
 H         -0.009 -0.170 -0.039   -0.210  0.057 -0.214    0.305 -0.088  0.321
 C         -0.000  0.000  0.000    0.004 -0.000 -0.001    0.026 -0.002  0.005
 O         -0.000  0.000 -0.000   -0.001  0.000 -0.001   -0.007  0.001 -0.002
 F         -0.000 -0.000 -0.000   -0.001  0.001  0.001   -0.004  0.001 -0.001
 F          0.000 -0.000  0.000   -0.001 -0.001  0.000   -0.004  0.000 -0.001
 TransDip  -0.005 -0.126 -0.029    0.081 -0.032  0.120   -0.215 -0.017  0.120

 Mode:                25                     26                     27
 Frequency:       906.82                 916.61                 968.58
 Force Cnst:      0.6359                 0.6317                 8.7020
 Red. Mass:       1.3124                 1.2762                15.7435
 IR Active:          YES                    YES                    YES
 IR Intens:      134.998                145.810                 62.218
 Raman Active:       YES                    YES                    YES
               X      Y      Z        X      Y      Z        X      Y      Z
 C         -0.037  0.034  0.046    0.050 -0.002  0.018   -0.015  0.004 -0.010
 Si        -0.005 -0.077 -0.019   -0.038  0.017 -0.059    0.012 -0.007  0.019
 C          0.044  0.046 -0.026    0.047 -0.013  0.018   -0.013  0.005 -0.011
 C          0.002  0.052  0.014   -0.035 -0.014  0.062    0.008  0.005 -0.017
 H          0.051  0.775  0.193    0.467 -0.195  0.661   -0.144  0.070 -0.198
 H          0.053  0.218 -0.136   -0.081  0.044 -0.025    0.030 -0.022  0.015
 H          0.058  0.021 -0.101   -0.038 -0.210  0.069    0.005  0.061 -0.016
 H         -0.006 -0.209  0.021   -0.050  0.086 -0.093    0.025 -0.021  0.038
 H         -0.040  0.142  0.213   -0.081 -0.027 -0.050    0.031  0.016  0.031
 H         -0.060 -0.009  0.110   -0.018  0.164  0.147   -0.001 -0.049 -0.038
 H         -0.017 -0.180 -0.114   -0.054 -0.024 -0.115    0.024 -0.007  0.038
 H         -0.125 -0.018 -0.141    0.196 -0.035  0.032   -0.054  0.009 -0.012
 H          0.132 -0.088  0.120    0.191  0.004  0.033   -0.049 -0.002 -0.008
 H         -0.010 -0.093 -0.026   -0.169  0.049 -0.168    0.041 -0.013  0.040
 C          0.000  0.006  0.001    0.004 -0.003  0.010   -0.078 -0.094  0.326
 O          0.000  0.001 -0.000   -0.006 -0.002  0.009   -0.113 -0.138  0.479
 F          0.001 -0.001 -0.002    0.000 -0.008 -0.011    0.058 -0.292 -0.417
 F         -0.001 -0.003  0.001    0.001  0.012 -0.005    0.086  0.468 -0.192
 TransDip  -0.024 -0.360 -0.091   -0.256  0.085 -0.277   -0.054 -0.069  0.237

 Mode:                28                     29                     30
 Frequency:      1230.05                1258.69                1259.80
 Force Cnst:     11.5363                 1.1795                 1.1825
 Red. Mass:      12.9411                 1.2636                 1.2646
 IR Active:          YES                    YES                    YES
 IR Intens:      377.605                 31.309                 26.051
 Raman Active:       YES                    YES                    YES
               X      Y      Z        X      Y      Z        X      Y      Z
 C         -0.001 -0.013  0.003   -0.001  0.039 -0.019   -0.003 -0.102  0.039
 Si         0.001  0.008  0.002    0.007 -0.002  0.010    0.000  0.012  0.002
 C         -0.000 -0.012 -0.011   -0.005 -0.039 -0.045   -0.005 -0.072 -0.074
 C         -0.001 -0.005 -0.002   -0.104  0.022 -0.078    0.009 -0.006  0.006
 H         -0.007 -0.067 -0.019   -0.008  0.003 -0.016   -0.000 -0.018 -0.003
 H          0.024  0.006 -0.012    0.005 -0.112  0.117    0.007  0.276 -0.300
 H          0.020  0.018 -0.021   -0.067 -0.142  0.027    0.161  0.380 -0.060
 H         -0.019  0.056 -0.006    0.061 -0.147  0.034   -0.134  0.388 -0.055
 H         -0.023  0.006  0.024    0.014  0.069  0.213    0.008  0.115  0.370
 H         -0.025  0.016  0.035   -0.073  0.174  0.119   -0.117  0.315  0.205
 H          0.032  0.053  0.040    0.099  0.159  0.125    0.159  0.298  0.200
 H          0.004  0.002  0.012    0.429  0.116  0.224   -0.038 -0.009 -0.010
 H         -0.001  0.006 -0.010    0.412 -0.239  0.143   -0.034  0.025 -0.020
 H          0.002  0.017  0.006    0.234 -0.107  0.431   -0.019  0.025 -0.033
 C          0.032  0.863  0.256    0.000 -0.002 -0.000   -0.000 -0.009 -0.003
 O         -0.003 -0.084 -0.025   -0.000  0.000 -0.001    0.000  0.001  0.000
 F          0.022 -0.199 -0.201   -0.000  0.001  0.001   -0.000  0.002  0.002
 F         -0.040 -0.274  0.060    0.000  0.000  0.000    0.000  0.003 -0.001
 TransDip   0.020  0.596  0.177    0.101 -0.027  0.145    0.000  0.162  0.023

 Mode:                31                     32                     33
 Frequency:      1269.42                1419.83                1424.14
 Force Cnst:      1.1712                 1.2506                 1.2552
 Red. Mass:       1.2335                 1.0529                 1.0504
 IR Active:          YES                    YES                    YES
 IR Intens:        7.716                  0.017                  0.003
 Raman Active:       YES                    YES                    YES
               X      Y      Z        X      Y      Z        X      Y      Z
 C         -0.004 -0.083  0.035    0.021  0.011  0.028    0.035 -0.004 -0.005
 Si         0.002  0.001 -0.003    0.000 -0.000 -0.000    0.000  0.001  0.000
 C          0.003  0.059  0.065   -0.019  0.024 -0.020   -0.041 -0.010  0.011
 C         -0.055  0.011 -0.038   -0.002 -0.037 -0.008    0.008  0.025 -0.004
 H          0.014  0.001 -0.008   -0.000  0.002  0.000    0.001  0.004  0.003
 H          0.012  0.244 -0.260   -0.238 -0.102  0.135   -0.409  0.030 -0.014
 H          0.145  0.326 -0.063    0.170  0.102 -0.173   -0.048  0.237  0.181
 H         -0.121  0.333 -0.052   -0.213 -0.145 -0.332   -0.015 -0.222 -0.107
 H         -0.003 -0.108 -0.331    0.224 -0.057 -0.165    0.475 -0.009  0.082
 H          0.111 -0.273 -0.191   -0.163  0.033  0.198    0.154  0.368 -0.150
 H         -0.146 -0.258 -0.182    0.183 -0.285  0.232   -0.073 -0.239 -0.072
 H          0.241  0.059  0.117   -0.267  0.027  0.094    0.155  0.032  0.045
 H          0.232 -0.125  0.076    0.270  0.038 -0.078   -0.221 -0.112  0.123
 H          0.127 -0.059  0.236    0.020  0.422  0.094   -0.041 -0.271 -0.122
 C          0.000  0.001 -0.000   -0.000 -0.001 -0.000    0.000  0.004  0.001
 O          0.000 -0.001  0.001    0.000  0.000  0.000   -0.000 -0.001 -0.000
 F          0.000 -0.000 -0.001    0.000  0.000  0.000    0.000 -0.001 -0.001
 F          0.000  0.000 -0.000    0.000  0.000 -0.000   -0.000 -0.001  0.000
 TransDip   0.059  0.016 -0.064    0.001  0.004  0.000    0.001 -0.001  0.001

 Mode:                34                     35                     36
 Frequency:      1424.56                1431.83                1432.15
 Force Cnst:      1.2560                 1.2643                 1.2655
 Red. Mass:       1.0505                 1.0467                 1.0472
 IR Active:          YES                    YES                    YES
 IR Intens:        0.015                  3.171                  2.720
 Raman Active:       YES                    YES                    YES
               X      Y      Z        X      Y      Z        X      Y      Z
 C         -0.019  0.011  0.024   -0.024 -0.014 -0.034    0.017 -0.005 -0.016
 Si         0.001 -0.000  0.000   -0.004 -0.001 -0.006    0.001 -0.007  0.001
 C         -0.003 -0.015  0.014   -0.028  0.013 -0.008    0.003 -0.028  0.027
 C          0.028  0.002 -0.039    0.009 -0.014 -0.014   -0.006 -0.037 -0.004
 H          0.005 -0.003  0.007    0.015  0.006  0.025   -0.005  0.030 -0.003
 H          0.226 -0.107  0.113    0.299  0.145 -0.184   -0.203  0.067 -0.068
 H          0.171 -0.150 -0.305   -0.226 -0.139  0.235   -0.116  0.124  0.217
 H         -0.142  0.111 -0.138    0.277  0.184  0.429    0.089 -0.113  0.070
 H          0.023  0.032  0.121    0.348 -0.049 -0.098   -0.066  0.068  0.231
 H          0.141  0.093 -0.163   -0.057  0.170  0.088    0.256  0.100 -0.302
 H         -0.128  0.088 -0.155    0.100 -0.306  0.136   -0.246  0.229 -0.303
 H         -0.163  0.220  0.458   -0.173  0.077  0.175   -0.275  0.001  0.035
 H         -0.109 -0.367  0.301    0.080 -0.094  0.060    0.318  0.085 -0.118
 H         -0.114  0.126 -0.232   -0.029  0.218 -0.038    0.038  0.437  0.136
 C         -0.000 -0.001 -0.001   -0.000  0.000  0.001    0.000  0.002  0.000
 O         -0.000 -0.000  0.001    0.000  0.000 -0.002   -0.000 -0.001  0.001
 F          0.000  0.000  0.000   -0.000  0.000  0.000    0.000 -0.000 -0.000
 F          0.000  0.000 -0.000   -0.000 -0.001  0.000   -0.000 -0.000  0.000
 TransDip   0.004  0.000  0.001    0.019  0.007  0.053   -0.006  0.051 -0.010

 Mode:                37                     38                     39
 Frequency:      1440.74                1985.72                2161.63
 Force Cnst:      1.2779                30.4364                 2.8614
 Red. Mass:       1.0449                13.1011                 1.0393
 IR Active:          YES                    YES                    YES
 IR Intens:        8.519                408.550                237.739
 Raman Active:       YES                    YES                    YES
               X      Y      Z        X      Y      Z        X      Y      Z
 C         -0.027  0.010  0.018    0.000 -0.001  0.000   -0.001  0.000  0.000
 Si        -0.007 -0.001  0.005    0.003 -0.000  0.000   -0.028 -0.003  0.019
 C         -0.028 -0.013  0.012    0.000  0.001  0.000   -0.001 -0.000  0.000
 C         -0.018 -0.005  0.024    0.000  0.000 -0.001   -0.001 -0.000  0.001
 H         -0.007 -0.000  0.002   -0.072 -0.001  0.027    0.826  0.084 -0.555
 H          0.346 -0.100  0.097   -0.008 -0.001  0.003    0.000  0.001  0.004
 H          0.145 -0.224 -0.303    0.012  0.017 -0.009   -0.003 -0.002 -0.001
 H         -0.100  0.190 -0.058   -0.007  0.003 -0.012   -0.002 -0.008  0.004
 H          0.349  0.013  0.124   -0.009  0.000  0.003    0.000 -0.002  0.003
 H          0.174  0.312 -0.177    0.009 -0.013 -0.012   -0.003  0.002 -0.001
 H         -0.114 -0.137 -0.130   -0.006  0.003 -0.010   -0.001  0.005  0.007
 H          0.078 -0.152 -0.316   -0.003  0.000 -0.000   -0.002 -0.004  0.000
 H          0.099  0.264 -0.222   -0.002 -0.000  0.000   -0.002  0.003  0.002
 H          0.089 -0.044  0.180    0.002 -0.000  0.002   -0.009  0.001 -0.005
 C          0.000  0.000  0.000   -0.183 -0.226  0.785    0.001 -0.001  0.005
 O         -0.000  0.000 -0.000    0.116  0.145 -0.503    0.000  0.001 -0.003
 F         -0.000  0.000  0.000    0.007 -0.016 -0.043   -0.000 -0.000 -0.000
 F         -0.000 -0.000  0.000    0.009  0.036 -0.028   -0.000  0.000 -0.000
 TransDip   0.076  0.008 -0.054   -0.182 -0.170  0.598   -0.434 -0.031  0.234

 Mode:                40                     41                     42
 Frequency:      3019.22                3019.91                3020.13
 Force Cnst:      5.5626                 5.5658                 5.5663
 Red. Mass:       1.0357                 1.0358                 1.0358
 IR Active:          YES                    YES                    YES
 IR Intens:        5.816                  6.944                  3.344
 Raman Active:       YES                    YES                    YES
               X      Y      Z        X      Y      Z        X      Y      Z
 C         -0.001 -0.008  0.003   -0.005 -0.035  0.015    0.004  0.029 -0.012
 Si        -0.001  0.000 -0.001    0.000  0.001  0.000   -0.000 -0.000  0.000
 C         -0.001  0.006  0.006    0.002 -0.021 -0.024    0.002 -0.025 -0.028
 C          0.041 -0.008  0.026   -0.001  0.001 -0.001    0.010 -0.002  0.006
 H          0.002 -0.000  0.001   -0.000 -0.001 -0.000    0.001  0.000 -0.001
 H          0.003  0.067  0.074    0.013  0.289  0.324   -0.011 -0.238 -0.265
 H         -0.071  0.012 -0.047   -0.340  0.066 -0.229    0.273 -0.053  0.184
 H          0.085  0.011 -0.061    0.385  0.051 -0.273   -0.308 -0.041  0.219
 H         -0.006 -0.089  0.037    0.021  0.332 -0.142    0.025  0.395 -0.167
 H         -0.067  0.015 -0.045    0.282 -0.061  0.194    0.329 -0.071  0.226
 H          0.083  0.007 -0.058   -0.324 -0.026  0.228   -0.376 -0.030  0.265
 H          0.033  0.502 -0.210   -0.001 -0.019  0.008    0.007  0.121 -0.051
 H         -0.009 -0.364 -0.404   -0.000  0.006  0.006   -0.003 -0.088 -0.099
 H         -0.497 -0.047  0.318    0.013  0.001 -0.008   -0.116 -0.011  0.074
 C         -0.000 -0.000  0.000    0.000 -0.000 -0.000   -0.000 -0.000  0.000
 O          0.000  0.000 -0.000    0.000  0.000  0.000   -0.000  0.000 -0.000
 F          0.000 -0.000 -0.000    0.000  0.000  0.000    0.000 -0.000 -0.000
 F          0.000  0.000 -0.000   -0.000  0.000 -0.000    0.000  0.000 -0.000
 TransDip   0.057 -0.015  0.050   -0.010 -0.082 -0.015    0.041 -0.001 -0.042

 Mode:                43                     44                     45
 Frequency:      3098.72                3098.75                3100.49
 Force Cnst:      6.2293                 6.2290                 6.2337
 Red. Mass:       1.1011                 1.1010                 1.1006
 IR Active:          YES                    YES                    YES
 IR Intens:        2.522                  2.476                 24.593
 Raman Active:       YES                    YES                    YES
               X      Y      Z        X      Y      Z        X      Y      Z
 C         -0.013  0.009  0.019   -0.054  0.026  0.053   -0.025  0.012  0.025
 Si        -0.000 -0.000  0.000   -0.000  0.000  0.000   -0.001 -0.000  0.001
 C         -0.052 -0.038  0.036    0.032  0.017 -0.017   -0.028 -0.018  0.017
 C          0.029  0.011 -0.038    0.012 -0.005 -0.018   -0.044 -0.013  0.059
 H          0.001  0.000 -0.003    0.001  0.001 -0.001    0.007  0.001 -0.005
 H         -0.009 -0.129 -0.136   -0.029 -0.367 -0.386   -0.013 -0.170 -0.178
 H          0.011 -0.002  0.014    0.150 -0.031  0.122    0.066 -0.014  0.053
 H          0.155  0.027 -0.109    0.529  0.091 -0.377    0.248  0.044 -0.177
 H          0.019  0.465 -0.180   -0.007 -0.222  0.086    0.009  0.224 -0.086
 H          0.125 -0.034  0.104   -0.104  0.025 -0.082    0.074 -0.019  0.060
 H          0.487  0.021 -0.353   -0.267 -0.013  0.195    0.252  0.010 -0.184
 H         -0.004 -0.239  0.096    0.002 -0.032  0.010    0.005  0.335 -0.135
 H          0.014  0.136  0.144    0.008  0.104  0.115   -0.023 -0.232 -0.250
 H         -0.357 -0.030  0.214   -0.148 -0.015  0.088    0.554  0.047 -0.329
 C          0.000 -0.000 -0.000    0.000  0.000  0.000    0.000 -0.000  0.000
 O         -0.000  0.000  0.000   -0.000 -0.000  0.000   -0.000  0.000 -0.000
 F         -0.000  0.000  0.000   -0.000 -0.000 -0.000   -0.000 -0.000 -0.000
 F         -0.000  0.000 -0.000   -0.000 -0.000  0.000   -0.000  0.000 -0.000
 TransDip  -0.043 -0.020  0.018   -0.013  0.044  0.022   -0.106 -0.022  0.116

 Mode:                46                     47                     48
 Frequency:      3104.22                3106.42                3107.06
 Force Cnst:      6.2523                 6.2621                 6.2630
 Red. Mass:       1.1012                 1.1014                 1.1011
 IR Active:          YES                    YES                    YES
 IR Intens:       10.895                  4.421                 11.645
 Raman Active:       YES                    YES                    YES
               X      Y      Z        X      Y      Z        X      Y      Z
 C          0.005 -0.002 -0.003    0.035  0.012  0.033   -0.059 -0.016 -0.048
 Si        -0.000 -0.001 -0.000   -0.000  0.000 -0.000   -0.001  0.000 -0.000
 C         -0.006 -0.002  0.002   -0.051  0.044 -0.039   -0.036  0.025 -0.022
 C         -0.004 -0.089 -0.021    0.001  0.002 -0.000    0.002  0.000 -0.003
 H         -0.000  0.001  0.000    0.000 -0.001 -0.000    0.003  0.000  0.000
 H          0.002  0.026  0.027   -0.004 -0.215 -0.224    0.004  0.302  0.315
 H         -0.026  0.006 -0.019   -0.345  0.081 -0.235    0.559 -0.133  0.383
 H         -0.042 -0.007  0.030   -0.067 -0.009  0.059    0.148  0.023 -0.124
 H          0.001  0.029 -0.011   -0.038 -0.447  0.173   -0.022 -0.252  0.098
 H          0.029 -0.006  0.022    0.542 -0.097  0.386    0.355 -0.064  0.254
 H          0.040  0.002 -0.029    0.111  0.016 -0.095    0.099  0.011 -0.081
 H          0.026  0.631 -0.286   -0.001 -0.021  0.009   -0.000 -0.018  0.008
 H          0.028  0.458  0.539   -0.000 -0.007 -0.009    0.001  0.014  0.016
 H         -0.010 -0.018  0.002   -0.006  0.000  0.004   -0.019 -0.002  0.012
 C         -0.000 -0.000 -0.000    0.000 -0.000 -0.000    0.000  0.000 -0.000
 O          0.000  0.000  0.000   -0.000  0.000  0.000   -0.000 -0.000  0.000
 F          0.000  0.000  0.000    0.000  0.000  0.000   -0.000  0.000  0.000
 F         -0.000  0.000 -0.000   -0.000 -0.000  0.000   -0.000 -0.000  0.000
 TransDip  -0.004 -0.103 -0.025   -0.017  0.065 -0.003   -0.087  0.006 -0.065

 STANDARD THERMODYNAMIC QUANTITIES AT   298.15 K  AND     1.00 ATM

   This Molecule has  0 Imaginary Frequencies
   Zero point vibrational energy:       82.763 kcal/mol

   Atom    1 Element C  Has Mass   12.00000
   Atom    2 Element Si Has Mass   27.97693
   Atom    3 Element C  Has Mass   12.00000
   Atom    4 Element C  Has Mass   12.00000
   Atom    5 Element H  Has Mass    1.00783
   Atom    6 Element H  Has Mass    1.00783
   Atom    7 Element H  Has Mass    1.00783
   Atom    8 Element H  Has Mass    1.00783
   Atom    9 Element H  Has Mass    1.00783
   Atom   10 Element H  Has Mass    1.00783
   Atom   11 Element H  Has Mass    1.00783
   Atom   12 Element H  Has Mass    1.00783
   Atom   13 Element H  Has Mass    1.00783
   Atom   14 Element H  Has Mass    1.00783
   Atom   15 Element C  Has Mass   12.00000
   Atom   16 Element O  Has Mass   15.99491
   Atom   17 Element F  Has Mass   18.99840
   Atom   18 Element F  Has Mass   18.99840
   Molecular Mass:   140.046940 amu
   Principal axes and moments of inertia in amu*Bohr^2:
                             1           2           3
    Eigenvalues --      820.09980  2742.23456  2815.95107
          X              -0.99717     0.05318     0.05317
          Y               0.03990     0.97344    -0.22543
          Z               0.06374     0.22267     0.97281
   Rotational Symmetry Number is   1
   The Molecule is an Asymmetric Top
   Translational Enthalpy:        0.889 kcal/mol
   Rotational Enthalpy:           0.889 kcal/mol
   Vibrational Enthalpy:         89.309 kcal/mol
   gas constant (RT):             0.592 kcal/mol
   Translational Entropy:        40.722  cal/mol.K
   Rotational Entropy:           30.228  cal/mol.K
   Vibrational Entropy:          53.605  cal/mol.K

   Total Enthalpy:               91.679 kcal/mol
   Total Entropy:               124.554  cal/mol.K

   Quasi-RRHO corrections using alpha = 4, and omega = 100 cm^-1
   QRRHO-Vib. Enthalpy:          87.359 kcal/mol
   QRRHO-Vib. Entropy:           43.137  cal/mol.K
   QRRHO-Total Enthalpy:         89.729 kcal/mol
   QRRHO-Total Entropy:         114.087  cal/mol.K
 Total job time:  1892.16s(wall), 30061.64s(cpu) 
 Thu Nov 14 04:12:13 2024

        *************************************************************
        *                                                           *
        *  Thank you very much for using Q-Chem.  Have a nice day.  *
        *                                                           *
        *************************************************************


