
Running Job 1 of 2 Me3SiH_HCN_optfreq_B3LYP_svpd.in
qchem Me3SiH_HCN_optfreq_B3LYP_svpd.in_3568751.0 /data/scratch/Me3SiH_HCN_optfreq_B3LYP_svpd20241114031712/ 1
/opt/qchem/6.2.0/exe/qcprog.exe_s Me3SiH_HCN_optfreq_B3LYP_svpd.in_3568751.0 /data/scratch/Me3SiH_HCN_optfreq_B3LYP_svpd20241114031712/
                  Welcome to Q-Chem
     A Quantum Leap Into The Future Of Chemistry


 Q-Chem 6.2, Q-Chem, Inc., Pleasanton, CA (2024)

 E. Epifanovsky,  A. T. B. Gilbert,  Xintian Feng,  Joonho Lee,  Yuezhi Mao,  
 N. Mardirossian,  P. Pokhilko,  A. White,  M. Wormit,  M. P. Coons,  
 A. L. Dempwolff,  Zhengting Gan,  D. Hait,  P. R. Horn,  L. D. Jacobson,  
 I. Kaliman,  J. Kussmann,  A. W. Lange,  Ka Un Lao,  D. S. Levine,  Jie Liu,  
 S. C. McKenzie,  A. F. Morrison,  K. D. Nanda,  F. Plasser,  D. R. Rehn,  
 M. L. Vidal,  Zhi-Qiang You,  Ying Zhu,  Huseyin Aksu,  B. Alam,  
 B. Albrecht,  A. Aldossary,  E. Alguire,  J. H. Andersen,  
 J. E. Arias-Martinez,  V. Athavale,  D. Barton,  K. Begam,  A. Behn,  
 N. Bellonzi,  Y. A. Bernard,  E. J. Berquist,  H. Burton,  A. Carreras,  
 K. Carter-Fenk,  Mathew Chow,  Romit Chakraborty,  Chandrima Chakravarty,  
 Junhan Chen,  A. D. Chien,  K. D. Closser,  V. Cofer-Shabica,  L. Cunha,  
 S. Dasgupta,  Jia Deng,  Joseph Dickinson,  M. de Wergifosse,  
 M. Diedenhofen,  Hainam Do,  Wenjie Dou,  S. Ehlert,  Po-Tung Fang,  
 S. Fatehi,  Qingguo Feng,  Jonathan Fetherolf,  T. Friedhoff,  
 Thomas Froitzheim,  Sarai Folkestad,  B. Ganoe,  J. Gayvert,  Qinghui Ge,  
 G. Gidofalvi,  M. Gimferrer,  M. Goldey,  Montgomery Gray,  J. Gomes,  
 C. Gonzalez-Espinoza,  S. Gulania,  A. Gunina,  J. A. Gyamfi,  
 M. W. D. Hanson-Heine,  P. H. P. Harbach,  A. W. Hauser,  M. F. Herbst,  
 M. Hernandez Vera,  M. Hodecker,  Z. C. Holden,  S. Houck,  Xunkun Huang,  
 Kerwin Hui,  B. C. Huynh,  K. Ikeda,  M. Ivanov,  Nayanthara K. Jayadev,  
 Hyunjun Ji,  Zuxin Jin,  Hanjie Jiang,  Subrata Jana,  B. Kaduk,  
 S. Kaehler,  R. Kang,  K. Khistyaev,  Jaehoon Kim,  Yongbin Kim,  
 P. Klunzinger,  Z. Koczor-Benda,  Joong Hoon Koh,  D. Kosenkov,  
 Saikiran Kotaru,  L. Koulias,  T. Kowalczyk,  C. M. Krauter,  K. Kue,  
 A. Kunitsa,  T. Kus,  A. Landau,  K. V. Lawler,  D. Lefrancois,  S. Lehtola,  
 Rain Li,  Shaozhi Li,  Tao E. Li,  Yi-Pei Li,  Jiashu Liang,  M. Liebenthal,  
 Hung-Hsuan Lin,  You-Sheng Lin,  Fenglai Liu,  Kuan-Yu Liu,  Xiao Liu,  
 M. Loipersberger,  A. Luenser,  C. Malbon,  Aniket Mandal,  Manisha,  
 A. Manjanath,  P. Manohar,  E. Mansoor,  S. F. Manzer,  Shan-Ping Mao,  
 A. V. Marenich,  T. Markovich,  S. Mason,  F. Matz,  S. A. Maurer,  
 Samuel May,  Alexandra McIsaac,  P. F. McLaughlin,  M. F. S. J. Menger,  
 J.-M. Mewes,  S. A. Mewes,  P. Morgante,  Mohammad Mostafanejad,  
 Madhubani Mukherjee,  J. W. Mullinax,  Quyen Nguyen,  Avik Kumar Ojha,  
 K. J. Oosterbaan,  Eno Paenurk,  Xiaoliang Pan,  G. Paran,  V. Parravicini,  
 Alexander C. Paul,  Suranjan K. Paul,  F. Pavosevic,  Zheng Pei,  S. Prager,  
 E. I. Proynov,  E. Ramos,  B. Rana,  A. E. Rask,  A. Rettig,  R. M. Richard,  
 F. Rob,  E. Rossomme,  T. Scheele,  M. Scheurer,  M. Schneider,  
 P. E. Schneider,  Tim K. Schramm,  N. Sergueev,  S. M. Sharada,  
 Hengyuan Shen,  W. Skomorowski,  D. W. Small,  C. J. Stein,  
 Alistair J. Sterling,  Yingli Su,  Yu-Chuan Su,  E. J. Sundstrom,  
 J. Talbot,  Zhen Tao,  J. Thirman,  Hung-Yi Tsai,  T. Tsuchimochi,  
 N. M. Tubman,  C. Utku,  S. P. Veccham,  O. Vydrov,  Rahel Weiss,  
 J. Wenzel,  Jonathan Wong,  J. Witte,  H. Wu,  Yanze Wu,  A. Yamada,  
 Chou-Hsun Yang,  Kun Yao,  S. Yeganeh,  S. R. Yost,  Qi Yu,  A. Zech,  
 F. Zeller,  Chongxiao Zhao,  Igor Ying Zhang,  Xing Zhang,  Yu Zhang,  
 D. Zuev,  A. Aspuru-Guzik,  A. T. Bell,  N. A. Besley,  K. B. Bravaya,  
 B. R. Brooks,  D. Casanova,  Jeng-Da Chai,  Hsing-Ta Chen,  S. Coriani,  
 C. J. Cramer,  A. E. DePrince, III,  R. A. DiStasio Jr.,  A. Dreuw,  
 B. D. Dunietz,  T. R. Furlani,  W. A. Goddard III,  S. Grimme,  
 S. Hammes-Schiffer,  T. Head-Gordon,  W. J. Hehre,  Chao-Ping Hsu,  
 T.-C. Jagau,  Yousung Jung,  A. Klamt,  Jing Kong,  D. S. Lambrecht,  
 Xiangyuan Li,  WanZhen Liang,  N. J. Mayhall,  C. W. McCurdy,  J. B. Neaton,  
 T. Neudecker,  C. Ochsenfeld,  J. A. Parkhill,  R. Peverati,  
 V. A. Rassolov,  Haisheng Ren,  Yihan Shao,  L. V. Slipchenko,  
 R. P. Steele,  J. E. Subotnik,  A. J. W. Thom,  A. Tkatchenko,  
 D. G. Truhlar,  T. Van Voorhis,  Fan Wang,  T. A. Wesolowski,  K. B. Whaley,  
 H. L. Woodcock III,  P. M. Zimmerman,  S. Faraji,  P. M. W. Gill,  
 M. Head-Gordon,  J. M. Herbert,  A. I. Krylov

 Contributors to earlier versions of Q-Chem not listed above: 
 R. D. Adamson,  B. Austin,  R. Baer,  J. Baker,  G. J. O. Beran,  
 K. Brandhorst,  S. T. Brown,  E. F. C. Byrd,  Arup K. Chakraborty,  
 G. K. L. Chan,  Chun-Min Chang,  Yunqing Chen,  C.-L. Cheng,  
 Siu Hung Chien,  D. M. Chipman,  D. L. Crittenden,  H. Dachsel,  
 R. J. Doerksen,  A. D. Dutoi,  R. G. Edgar,  J. Fosso-Tande,  
 L. Fusti-Molnar,  D. Ghosh,  A. Ghysels,  A. Golubeva-Zadorozhnaya,  
 J. Gonthier,  M. S. Gordon,  S. R. Gwaltney,  G. Hawkins,  J. E. Herr,  
 A. Heyden,  S. Hirata,  E. G. Hohenstein,  G. Kedziora,  F. J. Keil,  
 C. Kelley,  Jihan Kim,  R. A. King,  R. Z. Khaliullin,  P. P. Korambath,  
 W. Kurlancheek,  A. Laurent,  A. M. Lee,  M. S. Lee,  S. V. Levchenko,  
 Ching Yeh Lin,  D. Liotard,  E. Livshits,  R. C. Lochan,  I. Lotan,  
 L. A. Martinez-Martinez,  P. E. Maslen,  N. Nair,  D. P. O'Neill,  
 D. Neuhauser,  E. Neuscamman,  C. M. Oana,  R. Olivares-Amaya,  R. Olson,  
 T. M. Perrine,  B. Peters,  P. A. Pieniazek,  A. Prociuk,  Y. M. Rhee,  
 J. Ritchie,  M. A. Rohrdanz,  E. Rosta,  N. J. Russ,  H. F. Schaefer III,  
 M. W. Schmidt,  N. E. Schultz,  S. Sharma,  N. Shenvi,  C. D. Sherrill,  
 A. C. Simmonett,  A. Sodt,  T. Stein,  D. Stuck,  K. S. Thanthiriwatte,  
 V. Vanovschi,  L. Vogt,  Tao Wang,  A. Warshel,  M. A. Watson,  
 C. F. Williams,  Q. Wu,  X. Xu,  Jun Yang,  W. Zhang,  Yan Zhao

   Please cite Q-Chem as follows:
  "Software for the frontiers of quantum chemistry:
   An overview of developments in the Q-Chem 5 package"
   J. Chem. Phys. 155, 084801 (2021)
   https://doi.org/10.1063/5.0055522 (open access)

 Q-Chem 6.2.0 for Intel X86 EM64T Linux

 Parts of Q-Chem use Armadillo 9.900.5 (Nocturnal Misbehaviour).
 http://arma.sourceforge.net/

 Q-Chem begins on Thu Nov 14 03:17:13 2024  

 Host: 
0

     Scratch files written to /data/scratch/Me3SiH_HCN_optfreq_B3LYP_svpd20241114031712//
 May224 |scratch|qcdevops|jenkins|workspace|build_RNUM -1
 Processing $rem in /opt/qchem/6.2.0/config/preferences:
 Processing $rem in /home/ymao/.qchemrc:

 Checking the input file for inconsistencies... 	...done.

--------------------------------------------------------------
User input:
--------------------------------------------------------------
$molecule
0 1
H    0.02669    0.00005    1.49943
Si   0.78961    0.00006    0.20216
C    0.33178    1.54856    -0.76659
H    -0.73953   1.55402    -1.02143
H    0.55364    2.46363    -0.19387
H    0.90094    1.59835    -1.70976
C    2.62916    0.00031    0.61801
H    2.90777    0.89047    1.20464
H    3.23878    0.00032    -0.30070
H    2.90798    -0.88971   1.20476
C    0.33217    -1.54870   -0.76636
H    0.90133    -1.59847   -1.70953
H    0.55427    -2.46363   -0.19352
H    -0.73914   -1.55449   -1.02119
N    -3.06699   -0.00012   -0.29700
C    -2.88249   -0.00032   0.84134
H    -2.69568   -0.00050   1.90506
$end

$rem
JOBTYPE  OPT
METHOD  B3LYP
BASIS  DEF2-SVPD
SYMMETRY  FALSE
SYM_IGNORE  TRUE
MEM_TOTAL  8000
MEM_STATIC  2000
BASIS_LIN_DEP_THRESH  6
THRESH  14
SCF_CONVERGENCE  8
FD_MAT_VEC_PROD  FALSE
XC_GRID  000099000590
NL_GRID  1
MAX_SCF_CYCLES  200
GEOM_OPT_MAX_CYCLES  200
GEOM_OPT_DRIVER  OPTIMIZE
$end

--------------------------------------------------------------
 ----------------------------------------------------------------
             Standard Nuclear Orientation (Angstroms)
    I     Atom           X                Y                Z
 ----------------------------------------------------------------
    1      H       0.0266900000     0.0000500000     1.4994300000
    2      Si      0.7896100000     0.0000600000     0.2021600000
    3      C       0.3317800000     1.5485600000    -0.7665900000
    4      H      -0.7395300000     1.5540200000    -1.0214300000
    5      H       0.5536400000     2.4636300000    -0.1938700000
    6      H       0.9009400000     1.5983500000    -1.7097600000
    7      C       2.6291600000     0.0003100000     0.6180100000
    8      H       2.9077700000     0.8904700000     1.2046400000
    9      H       3.2387800000     0.0003200000    -0.3007000000
   10      H       2.9079800000    -0.8897100000     1.2047600000
   11      C       0.3321700000    -1.5487000000    -0.7663600000
   12      H       0.9013300000    -1.5984700000    -1.7095300000
   13      H       0.5542700000    -2.4636300000    -0.1935200000
   14      H      -0.7391400000    -1.5544900000    -1.0211900000
   15      N      -3.0669900000    -0.0001200000    -0.2970000000
   16      C      -2.8824900000    -0.0003200000     0.8413400000
   17      H      -2.6956800000    -0.0005000000     1.9050600000
 ----------------------------------------------------------------
 Nuclear Repulsion Energy =         273.40472088 hartrees
 There are       28 alpha and       28 beta electrons
 Requested basis set is def2-SVPD
 There are 94 shells and 212 basis functions

 Total QAlloc Memory Limit   8000 MB
 Mega-Array Size      1956 MB
 MEM_STATIC part      2000 MB

 A cutoff of  1.0D-14 yielded   4327 shell pairs
 There are     22103 function pairs (     24699 Cartesian)
 Smallest overlap matrix eigenvalue = 1.77E-04

 Scale SEOQF with 1.000000e-01/1.000000e-01/1.000000e-01

 Standard Electronic Orientation quadrupole field applied
 Nucleus-field energy     =     0.0000000077 hartrees
 Guess from superposition of atomic densities
 Warning:  Energy on first SCF cycle will be non-variational
 SAD guess density has 56.000000 electrons

 -----------------------------------------------------------------------
  General SCF calculation program by
  Eric Jon Sundstrom, Paul Horn, Yuezhi Mao, Dmitri Zuev, Alec White,
  David Stuck, Shaama M.S., Shane Yost, Joonho Lee, David Small,
  Daniel Levine, Susi Lehtola, Hugh Burton, Evgeny Epifanovsky,
  Bang C. Huynh
 -----------------------------------------------------------------------
 Exchange:     0.2000 Hartree-Fock + 0.0800 Slater + 0.7200 B88
 Correlation:  0.1900 VWN1RPA + 0.8100 LYP
 Using Euler-Maclaurin-Lebedev (99,590) quadrature formula
 using 16 threads for integral computing
 -------------------------------------------------------
 OpenMP Integral computing Module                
 Release: version 1.0, May 2013, Q-Chem Inc. Pittsburgh 
 -------------------------------------------------------
 A restricted SCF calculation will be
 performed using DIIS
 SCF converges when DIIS error is below 1.0e-08
 ---------------------------------------
  Cycle       Energy         DIIS error
 ---------------------------------------
    1    -503.4823137952      3.67e-02  
    2    -502.8280469010      6.45e-03  
    3    -502.6397643900      8.57e-03  
    4    -503.0281684153      2.99e-03  
    5    -503.0728715864      2.97e-04  
    6    -503.0733373630      1.00e-04  
    7    -503.0734061956      9.26e-06  
    8    -503.0734067473      2.44e-06  
    9    -503.0734067840      9.10e-07  
   10    -503.0734067887      2.38e-07  
   11    -503.0734067890      5.79e-08  
   12    -503.0734067890      8.73e-09  Convergence criterion met
 ---------------------------------------
 SCF time:   CPU 481.40s  wall 30.00s 
 SCF   energy =  -503.07340679
 Total energy =  -503.07340679
 
 --------------------------------------------------------------
 
                    Orbital Energies (a.u.)
 --------------------------------------------------------------
 
 Alpha MOs
 -- Occupied --
-66.1064 -14.3605 -10.2533 -10.1682 -10.1643 -10.1643  -5.2689  -3.6314
 -3.6306  -3.6305  -0.9233  -0.7074  -0.6719  -0.6698  -0.6070  -0.4768
 -0.4194  -0.4100  -0.4087  -0.3929  -0.3907  -0.3898  -0.3829  -0.3716
 -0.3711  -0.3131  -0.3061  -0.3057
 -- Virtual --
 -0.0083  -0.0078   0.0135   0.0246   0.0376   0.0385   0.0659   0.0699
  0.0863   0.0876   0.0931   0.1004   0.1076   0.1157   0.1206   0.1234
  0.1322   0.1403   0.1431   0.1484   0.1580   0.1608   0.1723   0.2015
  0.2117   0.2118   0.2201   0.2257   0.2290   0.2416   0.2499   0.2589
  0.2653   0.2728   0.2952   0.3004   0.3095   0.3126   0.3150   0.3237
  0.3311   0.3382   0.3459   0.3515   0.3607   0.3614   0.3629   0.3631
  0.3691   0.3757   0.3903   0.3942   0.3999   0.4071   0.4078   0.4151
  0.4188   0.4241   0.4313   0.4435   0.4580   0.4607   0.4607   0.4686
  0.4843   0.4845   0.5001   0.5134   0.5198   0.5246   0.5254   0.5371
  0.5447   0.5462   0.5598   0.5647   0.5873   0.5921   0.5974   0.6103
  0.6307   0.6371   0.6759   0.6825   0.6938   0.6993   0.7337   0.7369
  0.7679   0.7766   0.8104   0.8268   0.8401   0.8603   0.8763   0.9029
  0.9118   0.9233   0.9370   0.9371   0.9734   0.9822   0.9831   0.9937
  0.9954   1.0119   1.0141   1.0383   1.0645   1.0710   1.0757   1.1006
  1.1428   1.1484   1.1536   1.1693   1.1744   1.1903   1.2523   1.2617
  1.2953   1.2982   1.3117   1.3438   1.3955   1.4975   1.5598   1.5695
  1.5979   1.6022   1.6390   1.6549   1.6881   1.6917   1.7102   1.7148
  1.7278   1.8130   1.8251   1.8311   1.8565   1.9142   1.9167   1.9210
  1.9365   1.9508   1.9522   1.9845   1.9928   2.0057   2.0202   2.0384
  2.0421   2.0650   2.0988   2.1095   2.1291   2.1452   2.1865   2.2261
  2.3471   2.3876   2.3908   2.4810   2.4843   2.5050   2.5062   2.5115
  2.5209   2.5290   2.5393   2.7893   2.7923   2.8007   3.0064   3.0158
  3.0612   3.0713   3.0788   3.1043   3.1153   3.1345   3.1847   3.7935
 --------------------------------------------------------------
 
          Ground-State Mulliken Net Atomic Charges

     Atom                 Charge (a.u.)
  ----------------------------------------
      1 H                     0.256320
      2 Si                   -0.518517
      3 C                     0.496233
      4 H                    -0.252944
      5 H                    -0.111034
      6 H                    -0.074795
      7 C                     0.485173
      8 H                    -0.131083
      9 H                    -0.125294
     10 H                    -0.131069
     11 C                     0.496167
     12 H                    -0.074815
     13 H                    -0.111072
     14 H                    -0.252835
     15 N                    -0.034390
     16 C                     0.315427
     17 H                    -0.231473
  ----------------------------------------
  Sum of atomic charges =     0.000000

 -----------------------------------------------------------------
                    Cartesian Multipole Moments
 -----------------------------------------------------------------
    Charge (ESU x 10^10)
                -0.0000
    Dipole Moment (Debye)
         X       0.6701      Y      -0.0005      Z       2.2643
       Tot       2.3614
    Quadrupole Moments (Debye-Ang)
        XX     -50.6253     XY       0.0014     YY     -47.9434
        XZ      -8.6354     YZ      -0.0012     ZZ     -44.6597
    Octopole Moments (Debye-Ang^2)
       XXX       7.9872    XXY      -0.0039    XYY       1.0914
       YYY       0.0035    XXZ      21.6820    XYZ       0.0026
       YYZ       3.5355    XZZ      -8.6559    YZZ      -0.0020
       ZZZ       5.8555
    Hexadecapole Moments (Debye-Ang^3)
      XXXX   -1174.1028   XXXY      -0.0236   XXYY    -234.7787
      XYYY      -0.0271   YYYY    -329.9892   XXXZ     -77.4352
      XXYZ      -0.0080   XYYZ       2.3055   YYYZ       0.0066
      XXZZ    -188.8526   XYZZ      -0.0036   YYZZ     -92.0252
      XZZZ     -31.3502   YZZZ       0.0015   ZZZZ    -202.7776
 -----------------------------------------------------------------
 Calculating analytic gradient of the SCF energy
 Gradient of SCF Energy
            1           2           3           4           5           6
    1  -0.0004124   0.0003569   0.0007206  -0.0011885   0.0002142   0.0004940
    2  -0.0000003   0.0000000  -0.0019831  -0.0002130   0.0005531  -0.0001637
    3   0.0007915  -0.0014098   0.0011420  -0.0001752   0.0005780  -0.0006826
            7           8           9          10          11          12
    1  -0.0021595  -0.0000085   0.0002612  -0.0000078   0.0007215   0.0004937
    2   0.0000016   0.0007089  -0.0000000  -0.0007108   0.0019818   0.0001642
    3  -0.0007378   0.0003842  -0.0008078   0.0003855   0.0011436  -0.0006821
           13          14          15          16          17
    1   0.0002125  -0.0011876   0.0011943  -0.0000651   0.0003605
    2  -0.0005504   0.0002113  -0.0000000   0.0000005  -0.0000002
    3   0.0005760  -0.0001749   0.0027324  -0.0051627   0.0020999
 Max gradient component =       5.163E-03
 RMS gradient           =       1.151E-03
 Gradient time:  CPU 114.51 s  wall 7.27 s
 Geometry Optimization Parameters
   NAtoms,    NIC,     NZ,  NCons,   NDum,   NFix, NCnnct, MaxDiis
       17     141       0       0       0       0       0       0


** GEOMETRY OPTIMIZATION IN DELOCALIZED INTERNAL COORDINATES **
   Searching for a Minimum

   Optimization Cycle:   1

                       Coordinates (Angstroms)
     ATOM                X               Y               Z
      1  H         0.0266900000    0.0000500000    1.4994300000
      2  Si        0.7896100000    0.0000600000    0.2021600000
      3  C         0.3317800000    1.5485600000   -0.7665900000
      4  H        -0.7395300000    1.5540200000   -1.0214300000
      5  H         0.5536400000    2.4636300000   -0.1938700000
      6  H         0.9009400000    1.5983500000   -1.7097600000
      7  C         2.6291600000    0.0003100000    0.6180100000
      8  H         2.9077700000    0.8904700000    1.2046400000
      9  H         3.2387800000    0.0003200000   -0.3007000000
     10  H         2.9079800000   -0.8897100000    1.2047600000
     11  C         0.3321700000   -1.5487000000   -0.7663600000
     12  H         0.9013300000   -1.5984700000   -1.7095300000
     13  H         0.5542700000   -2.4636300000   -0.1935200000
     14  H        -0.7391400000   -1.5544900000   -1.0211900000
     15  N        -3.0669900000   -0.0001200000   -0.2970000000
     16  C        -2.8824900000   -0.0003200000    0.8413400000
     17  H        -2.6956800000   -0.0005000000    1.9050600000
   Point Group: c1    Number of degrees of freedom:    45


   Energy is   -503.073406789


 Attempting to generate delocalized internal coordinates
 Initial Hessian constructed with Jon Baker's OPTIMIZE code

 45 Hessian modes will be used to form the next step
  Hessian Eigenvalues:
     0.002594    0.002928    0.003407    0.007662    0.013642    0.016178
     0.017383    0.033674    0.033982    0.036983    0.043361    0.052469
     0.054091    0.054734    0.055772    0.064720    0.074887    0.082112
     0.106614    0.108147    0.112989    0.113173    0.115060    0.120770
     0.147207    0.150155    0.160000    0.160000    0.160000    0.164130
     0.173964    0.198346    0.198548    0.203660    0.300186    0.321120
     0.333831    0.333832    0.333993    0.334530    0.334536    0.334745
     0.334749    0.341948    1.249505

 Minimum search - taking simple RFO step
 Searching for Lamda that Minimizes Along All modes
 Value Taken    Lamda =  -0.00016210
 Step Taken.  Stepsize is  0.064720

                             Maximum     Tolerance    Cnvgd?
         Gradient           0.003044      0.000300      NO
         Displacement       0.035929      0.001200      NO
         Energy change     *********      0.000001      NO


 New Cartesian Coordinates Obtained by Inverse Iteration

 Displacement from previous Coordinates is:  0.070338
 ----------------------------------------------------------------
             Standard Nuclear Orientation (Angstroms)
    I     Atom           X                Y                Z
 ----------------------------------------------------------------
    1      H       0.0303035308     0.0000519046     1.4940166446
    2      Si      0.7936014197     0.0000585688     0.1983256550
    3      C       0.3318305140     1.5538163598    -0.7699425765
    4      H      -0.7388019728     1.5601913679    -1.0222439250
    5      H       0.5538526788     2.4678303493    -0.1980406517
    6      H       0.8976478351     1.6065699469    -1.7134234846
    7      C       2.6368182716     0.0003110747     0.6219030647
    8      H       2.9142972205     0.8889261015     1.2091123972
    9      H       3.2504326937     0.0003204278    -0.2925846334
   10      H       2.9145081114    -0.8881574376     1.2092347564
   11      C       0.3322205784    -1.5539590558    -0.7697159394
   12      H       0.8980403477    -1.6066969767    -1.7131963645
   13      H       0.5544872945    -2.4678359174    -0.1976895880
   14      H      -0.7384124343    -1.5606562573    -1.0220096610
   15      N      -3.0820558472    -0.0001207679    -0.2920845115
   16      C      -2.8942634965    -0.0003202585     0.8468694865
   17      H      -2.7042167455    -0.0004994302     1.9069193311
 ----------------------------------------------------------------
 Nuclear Repulsion Energy =         272.74623329 hartrees
 There are       28 alpha and       28 beta electrons
 Applying Cartesian multipole field
    Component          Value
    ---------          -----
     (2,0,0)        1.00000E-11
     (0,2,0)        2.00000E-11
     (0,0,2)       -3.00000E-11
 Nucleus-field energy     =     0.0000000077 hartrees
 Requested basis set is def2-SVPD
 There are 94 shells and 212 basis functions
 A cutoff of  1.0D-14 yielded   4327 shell pairs
 There are     22103 function pairs (     24699 Cartesian)
 Smallest overlap matrix eigenvalue = 1.77E-04
 Guess MOs from SCF MO coefficient file

 -----------------------------------------------------------------------
  General SCF calculation program by
  Eric Jon Sundstrom, Paul Horn, Yuezhi Mao, Dmitri Zuev, Alec White,
  David Stuck, Shaama M.S., Shane Yost, Joonho Lee, David Small,
  Daniel Levine, Susi Lehtola, Hugh Burton, Evgeny Epifanovsky,
  Bang C. Huynh
 -----------------------------------------------------------------------
 Exchange:     0.2000 Hartree-Fock + 0.0800 Slater + 0.7200 B88
 Correlation:  0.1900 VWN1RPA + 0.8100 LYP
 Using Euler-Maclaurin-Lebedev (99,590) quadrature formula
 A restricted SCF calculation will be
 performed using DIIS
 SCF converges when DIIS error is below 1.0e-08
 ---------------------------------------
  Cycle       Energy         DIIS error
 ---------------------------------------
    1    -503.0734689703      1.16e-04  
    2    -503.0735108447      1.54e-05  
    3    -503.0735108644      1.62e-05  
    4    -503.0735119663      9.36e-06  
    5    -503.0735123901      1.33e-06  
    6    -503.0735124009      2.20e-07  
    7    -503.0735124011      1.08e-07  
    8    -503.0735124012      1.68e-08  
    9    -503.0735124012      4.43e-09  Convergence criterion met
 ---------------------------------------
 SCF time:   CPU 362.03s  wall 22.00s 
 SCF   energy =  -503.07351240
 Total energy =  -503.07351240
 
 --------------------------------------------------------------
 
                    Orbital Energies (a.u.)
 --------------------------------------------------------------
 
 Alpha MOs
 -- Occupied --
-66.1075 -14.3608 -10.2534 -10.1683 -10.1645 -10.1645  -5.2697  -3.6322
 -3.6314  -3.6313  -0.9229  -0.7070  -0.6722  -0.6701  -0.6079  -0.4771
 -0.4189  -0.4097  -0.4085  -0.3930  -0.3908  -0.3899  -0.3831  -0.3716
 -0.3711  -0.3130  -0.3063  -0.3058
 -- Virtual --
 -0.0086  -0.0081   0.0135   0.0250   0.0375   0.0383   0.0660   0.0702
  0.0863   0.0877   0.0932   0.0998   0.1071   0.1156   0.1207   0.1232
  0.1317   0.1395   0.1429   0.1481   0.1580   0.1608   0.1723   0.2014
  0.2112   0.2114   0.2185   0.2251   0.2287   0.2411   0.2496   0.2585
  0.2650   0.2729   0.2948   0.3006   0.3093   0.3124   0.3149   0.3230
  0.3315   0.3379   0.3459   0.3512   0.3600   0.3612   0.3626   0.3630
  0.3691   0.3753   0.3898   0.3935   0.3995   0.4068   0.4074   0.4146
  0.4182   0.4234   0.4311   0.4426   0.4573   0.4604   0.4606   0.4673
  0.4839   0.4841   0.4987   0.5133   0.5189   0.5240   0.5245   0.5363
  0.5442   0.5455   0.5591   0.5632   0.5861   0.5916   0.5972   0.6095
  0.6292   0.6354   0.6739   0.6813   0.6913   0.6991   0.7338   0.7360
  0.7666   0.7754   0.8102   0.8265   0.8394   0.8597   0.8756   0.9025
  0.9113   0.9238   0.9373   0.9380   0.9739   0.9814   0.9827   0.9931
  0.9949   1.0114   1.0125   1.0376   1.0617   1.0688   1.0756   1.0996
  1.1416   1.1471   1.1528   1.1679   1.1727   1.1880   1.2495   1.2607
  1.2933   1.2976   1.3110   1.3417   1.3936   1.4967   1.5578   1.5679
  1.5969   1.6017   1.6380   1.6562   1.6887   1.6926   1.7090   1.7137
  1.7272   1.8131   1.8257   1.8306   1.8554   1.9136   1.9160   1.9225
  1.9372   1.9512   1.9525   1.9839   1.9940   2.0062   2.0209   2.0383
  2.0425   2.0652   2.0968   2.1082   2.1265   2.1425   2.1898   2.2290
  2.3496   2.3890   2.3925   2.4793   2.4835   2.5061   2.5081   2.5132
  2.5221   2.5300   2.5401   2.7900   2.7931   2.8016   3.0062   3.0154
  3.0642   3.0738   3.0812   3.1063   3.1172   3.1361   3.1850   3.7956
 --------------------------------------------------------------
 
          Ground-State Mulliken Net Atomic Charges

     Atom                 Charge (a.u.)
  ----------------------------------------
      1 H                     0.255660
      2 Si                   -0.491362
      3 C                     0.499149
      4 H                    -0.254216
      5 H                    -0.114862
      6 H                    -0.081130
      7 C                     0.488560
      8 H                    -0.134835
      9 H                    -0.129891
     10 H                    -0.134836
     11 C                     0.499065
     12 H                    -0.081150
     13 H                    -0.114882
     14 H                    -0.254105
     15 N                    -0.035270
     16 C                     0.326351
     17 H                    -0.242246
  ----------------------------------------
  Sum of atomic charges =     0.000000

 -----------------------------------------------------------------
                    Cartesian Multipole Moments
 -----------------------------------------------------------------
    Charge (ESU x 10^10)
                -0.0000
    Dipole Moment (Debye)
         X       0.6830      Y      -0.0005      Z       2.2592
       Tot       2.3602
    Quadrupole Moments (Debye-Ang)
        XX     -50.6711     XY       0.0013     YY     -47.9216
        XZ      -8.6442     YZ      -0.0012     ZZ     -44.6369
    Octopole Moments (Debye-Ang^2)
       XXX       8.6013    XXY      -0.0039    XYY       1.1270
       YYY       0.0036    XXZ      21.8510    XYZ       0.0026
       YYZ       3.4826    XZZ      -8.6888    YZZ      -0.0020
       ZZZ       5.9164
    Hexadecapole Moments (Debye-Ang^3)
      XXXX   -1183.0921   XXXY      -0.0237   XXYY    -236.3722
      XYYY      -0.0274   YYYY    -331.3052   XXXZ     -77.5851
      XXYZ      -0.0081   XYYZ       2.3885   YYYZ       0.0063
      XXZZ    -189.9994   XYZZ      -0.0036   YYZZ     -92.3230
      XZZZ     -31.0996   YZZZ       0.0013   ZZZZ    -203.2431
 -----------------------------------------------------------------
 Calculating analytic gradient of the SCF energy
 Gradient of SCF Energy
            1           2           3           4           5           6
    1  -0.0002013  -0.0002329  -0.0000498  -0.0003591  -0.0000312   0.0000262
    2   0.0000000  -0.0000000  -0.0001670   0.0000378   0.0000423  -0.0000640
    3   0.0005060  -0.0005238   0.0002562  -0.0000844  -0.0000701   0.0000320
            7           8           9          10          11          12
    1  -0.0001634   0.0000857  -0.0000817   0.0000856  -0.0000495   0.0000261
    2   0.0000002  -0.0000365  -0.0000001   0.0000364   0.0001674   0.0000641
    3   0.0000763  -0.0000054  -0.0000179  -0.0000055   0.0002565   0.0000319
           13          14          15          16          17
    1  -0.0000315  -0.0003590   0.0007012   0.0006596  -0.0000247
    2  -0.0000425  -0.0000385   0.0000004  -0.0000003   0.0000001
    3  -0.0000701  -0.0000845  -0.0001238   0.0000252  -0.0001986
 Max gradient component =       7.012E-04
 RMS gradient           =       2.058E-04
 Gradient time:  CPU 118.42 s  wall 7.51 s
 Geometry Optimization Parameters
   NAtoms,    NIC,     NZ,  NCons,   NDum,   NFix, NCnnct, MaxDiis
       17     141       0       0       0       0       0       0

 Cartesian Hessian Update
 Hessian updated using BFGS update


** GEOMETRY OPTIMIZATION IN DELOCALIZED INTERNAL COORDINATES **
   Searching for a Minimum

   Optimization Cycle:   2

                       Coordinates (Angstroms)
     ATOM                X               Y               Z
      1  H         0.0303035308    0.0000519046    1.4940166446
      2  Si        0.7936014197    0.0000585688    0.1983256550
      3  C         0.3318305140    1.5538163598   -0.7699425765
      4  H        -0.7388019728    1.5601913679   -1.0222439250
      5  H         0.5538526788    2.4678303493   -0.1980406517
      6  H         0.8976478351    1.6065699469   -1.7134234846
      7  C         2.6368182716    0.0003110747    0.6219030647
      8  H         2.9142972205    0.8889261015    1.2091123972
      9  H         3.2504326937    0.0003204278   -0.2925846334
     10  H         2.9145081114   -0.8881574376    1.2092347564
     11  C         0.3322205784   -1.5539590558   -0.7697159394
     12  H         0.8980403477   -1.6066969767   -1.7131963645
     13  H         0.5544872945   -2.4678359174   -0.1976895880
     14  H        -0.7384124343   -1.5606562573   -1.0220096610
     15  N        -3.0820558472   -0.0001207679   -0.2920845115
     16  C        -2.8942634965   -0.0003202585    0.8468694865
     17  H        -2.7042167455   -0.0004994302    1.9069193311
   Point Group: c1    Number of degrees of freedom:    45


   Energy is   -503.073512401

 Hessian updated using BFGS update

 44 Hessian modes will be used to form the next step
  Hessian Eigenvalues:
     0.002594    0.002928    0.003383    0.007662    0.008165    0.016178
     0.016890    0.033674    0.033978    0.037075    0.043361    0.052184
     0.054079    0.054734    0.055772    0.062321    0.074843    0.082112
     0.106630    0.108147    0.112989    0.113934    0.115060    0.121342
     0.147207    0.148706    0.159443    0.161040    0.163854    0.172497
     0.198548    0.201302    0.222064    0.300186    0.322512    0.333831
     0.333922    0.334214    0.334533    0.334650    0.334747    0.337344
     0.380120    1.270201

 Minimum search - taking simple RFO step
 Searching for Lamda that Minimizes Along All modes
 Value Taken    Lamda =  -0.00008033
 Step Taken.  Stepsize is  0.096454

                             Maximum     Tolerance    Cnvgd?
         Gradient           0.000603      0.000300      NO
         Displacement       0.055699      0.001200      NO
         Energy change     -0.000106      0.000001      NO


 New Cartesian Coordinates Obtained by Inverse Iteration

 Displacement from previous Coordinates is:  0.087077
 ----------------------------------------------------------------
             Standard Nuclear Orientation (Angstroms)
    I     Atom           X                Y                Z
 ----------------------------------------------------------------
    1      H       0.0333851867     0.0000528454     1.4878514683
    2      Si      0.7982090854     0.0000577025     0.1940584345
    3      C       0.3360524037     1.5567327207    -0.7738250717
    4      H      -0.7351581452     1.5660632951    -1.0218505794
    5      H       0.5615985358     2.4690567577    -0.2014512139
    6      H       0.8981707971     1.6107390455    -1.7189358347
    7      C       2.6422418276     0.0003113133     0.6235819548
    8      H       2.9167471595     0.8884958315     1.2120579797
    9      H       3.2605156273     0.0003208348    -0.2872814592
   10      H       2.9169608895    -0.8877218294     1.2121844169
   11      C       0.3364409523    -1.5568755687    -0.7736008417
   12      H       0.8985648195    -1.6108723163    -1.7187093797
   13      H       0.5622314456    -2.4690615226    -0.2010991851
   14      H      -0.7347689336    -1.5665205767    -1.0216205926
   15      N      -3.1064601356    -0.0001250101    -0.2838968669
   16      C      -2.9147206576    -0.0003227733     0.8547888906
   17      H      -2.7197208579    -0.0005007493     1.9131978802
 ----------------------------------------------------------------
 Nuclear Repulsion Energy =         272.10075082 hartrees
 There are       28 alpha and       28 beta electrons
 Applying Cartesian multipole field
    Component          Value
    ---------          -----
     (2,0,0)        1.00000E-11
     (0,2,0)        2.00000E-11
     (0,0,2)       -3.00000E-11
 Nucleus-field energy     =     0.0000000078 hartrees
 Requested basis set is def2-SVPD
 There are 94 shells and 212 basis functions
 A cutoff of  1.0D-14 yielded   4322 shell pairs
 There are     22062 function pairs (     24651 Cartesian)
 Smallest overlap matrix eigenvalue = 1.78E-04
 Guess MOs from SCF MO coefficient file

 -----------------------------------------------------------------------
  General SCF calculation program by
  Eric Jon Sundstrom, Paul Horn, Yuezhi Mao, Dmitri Zuev, Alec White,
  David Stuck, Shaama M.S., Shane Yost, Joonho Lee, David Small,
  Daniel Levine, Susi Lehtola, Hugh Burton, Evgeny Epifanovsky,
  Bang C. Huynh
 -----------------------------------------------------------------------
 Exchange:     0.2000 Hartree-Fock + 0.0800 Slater + 0.7200 B88
 Correlation:  0.1900 VWN1RPA + 0.8100 LYP
 Using Euler-Maclaurin-Lebedev (99,590) quadrature formula
 A restricted SCF calculation will be
 performed using DIIS
 SCF converges when DIIS error is below 1.0e-08
 ---------------------------------------
  Cycle       Energy         DIIS error
 ---------------------------------------
    1    -503.0735355479      1.09e-04  
    2    -503.0735769866      9.66e-06  
    3    -503.0735774191      6.79e-06  
    4    -503.0735777366      1.80e-06  
    5    -503.0735777384      1.85e-06  
    6    -503.0735777549      2.93e-07  
    7    -503.0735777554      7.31e-08  
    8    -503.0735777555      1.50e-08  
    9    -503.0735777555      3.98e-09  Convergence criterion met
 ---------------------------------------
 SCF time:   CPU 363.39s  wall 23.00s 
 SCF   energy =  -503.07357776
 Total energy =  -503.07357776
 
 --------------------------------------------------------------
 
                    Orbital Energies (a.u.)
 --------------------------------------------------------------
 
 Alpha MOs
 -- Occupied --
-66.1079 -14.3609 -10.2535 -10.1684 -10.1646 -10.1646  -5.2700  -3.6325
 -3.6318  -3.6317  -0.9227  -0.7068  -0.6723  -0.6703  -0.6081  -0.4773
 -0.4186  -0.4094  -0.4085  -0.3930  -0.3908  -0.3900  -0.3831  -0.3717
 -0.3712  -0.3131  -0.3063  -0.3058
 -- Virtual --
 -0.0087  -0.0081   0.0134   0.0251   0.0373   0.0380   0.0659   0.0702
  0.0863   0.0876   0.0931   0.0995   0.1066   0.1155   0.1207   0.1230
  0.1315   0.1387   0.1426   0.1478   0.1579   0.1608   0.1719   0.2011
  0.2108   0.2110   0.2179   0.2245   0.2281   0.2402   0.2493   0.2582
  0.2645   0.2726   0.2944   0.3007   0.3090   0.3123   0.3147   0.3222
  0.3316   0.3376   0.3458   0.3508   0.3588   0.3608   0.3623   0.3630
  0.3691   0.3748   0.3891   0.3930   0.3992   0.4064   0.4069   0.4139
  0.4173   0.4226   0.4308   0.4419   0.4569   0.4600   0.4602   0.4658
  0.4833   0.4833   0.4971   0.5129   0.5178   0.5236   0.5239   0.5356
  0.5439   0.5447   0.5589   0.5612   0.5845   0.5912   0.5967   0.6091
  0.6275   0.6347   0.6715   0.6800   0.6886   0.6992   0.7333   0.7343
  0.7647   0.7738   0.8097   0.8254   0.8386   0.8593   0.8753   0.9015
  0.9106   0.9240   0.9373   0.9382   0.9743   0.9806   0.9821   0.9923
  0.9943   1.0095   1.0103   1.0374   1.0596   1.0675   1.0754   1.0985
  1.1402   1.1460   1.1518   1.1667   1.1712   1.1860   1.2473   1.2594
  1.2923   1.2977   1.3104   1.3398   1.3916   1.4955   1.5551   1.5662
  1.5961   1.6015   1.6365   1.6566   1.6883   1.6929   1.7080   1.7130
  1.7260   1.8131   1.8265   1.8294   1.8533   1.9132   1.9153   1.9225
  1.9368   1.9514   1.9520   1.9822   1.9941   2.0055   2.0212   2.0379
  2.0419   2.0650   2.0954   2.1070   2.1253   2.1416   2.1901   2.2301
  2.3503   2.3888   2.3923   2.4771   2.4824   2.5062   2.5087   2.5137
  2.5224   2.5302   2.5402   2.7903   2.7930   2.8018   3.0057   3.0148
  3.0650   3.0744   3.0820   3.1066   3.1174   3.1361   3.1845   3.7958
 --------------------------------------------------------------
 
          Ground-State Mulliken Net Atomic Charges

     Atom                 Charge (a.u.)
  ----------------------------------------
      1 H                     0.256648
      2 Si                   -0.477763
      3 C                     0.496390
      4 H                    -0.252136
      5 H                    -0.115613
      6 H                    -0.085054
      7 C                     0.488661
      8 H                    -0.135296
      9 H                    -0.131830
     10 H                    -0.135304
     11 C                     0.496303
     12 H                    -0.085074
     13 H                    -0.115624
     14 H                    -0.252027
     15 N                    -0.034684
     16 C                     0.328146
     17 H                    -0.245744
  ----------------------------------------
  Sum of atomic charges =     0.000000

 -----------------------------------------------------------------
                    Cartesian Multipole Moments
 -----------------------------------------------------------------
    Charge (ESU x 10^10)
                 0.0000
    Dipole Moment (Debye)
         X       0.6979      Y      -0.0005      Z       2.2614
       Tot       2.3667
    Quadrupole Moments (Debye-Ang)
        XX     -50.7570     XY       0.0013     YY     -47.9144
        XZ      -8.6887     YZ      -0.0012     ZZ     -44.5859
    Octopole Moments (Debye-Ang^2)
       XXX       9.4346    XXY      -0.0038    XYY       1.2279
       YYY       0.0038    XXZ      22.1085    XYZ       0.0027
       YYZ       3.4619    XZZ      -8.7573    YZZ      -0.0020
       ZZZ       6.0094
    Hexadecapole Moments (Debye-Ang^3)
      XXXX   -1196.8127   XXXY      -0.0243   XXYY    -238.4255
      XYYY      -0.0280   YYYY    -332.2149   XXXZ     -77.7255
      XXYZ      -0.0083   XYYZ       2.7604   YYYZ       0.0063
      XXZZ    -191.4773   XYZZ      -0.0038   YYZZ     -92.5658
      XZZZ     -30.3388   YZZZ       0.0012   ZZZZ    -203.6256
 -----------------------------------------------------------------
 Calculating analytic gradient of the SCF energy
 Gradient of SCF Energy
            1           2           3           4           5           6
    1  -0.0000371  -0.0005162  -0.0003293  -0.0000551  -0.0000983  -0.0001221
    2   0.0000002  -0.0000001   0.0005978   0.0001335  -0.0001760   0.0000198
    3   0.0003016   0.0001326  -0.0001749  -0.0000348  -0.0002752   0.0002389
            7           8           9          10          11          12
    1   0.0006592   0.0000583  -0.0001272   0.0000579  -0.0003294  -0.0001220
    2  -0.0000005  -0.0002741  -0.0000000   0.0002747  -0.0005969  -0.0000199
    3   0.0003762  -0.0001488   0.0002271  -0.0001493  -0.0001752   0.0002387
           13          14          15          16          17
    1  -0.0000977  -0.0000552   0.0004968   0.0007155  -0.0000981
    2   0.0001749  -0.0001336   0.0000006  -0.0000006   0.0000002
    3  -0.0002746  -0.0000350  -0.0010554   0.0015898  -0.0007816
 Max gradient component =       1.590E-03
 RMS gradient           =       3.874E-04
 Gradient time:  CPU 116.94 s  wall 7.41 s
 Geometry Optimization Parameters
   NAtoms,    NIC,     NZ,  NCons,   NDum,   NFix, NCnnct, MaxDiis
       17     141       0       0       0       0       0       0

 Cartesian Hessian Update
 Hessian updated using BFGS update


** GEOMETRY OPTIMIZATION IN DELOCALIZED INTERNAL COORDINATES **
   Searching for a Minimum

   Optimization Cycle:   3

                       Coordinates (Angstroms)
     ATOM                X               Y               Z
      1  H         0.0333851867    0.0000528454    1.4878514683
      2  Si        0.7982090854    0.0000577025    0.1940584345
      3  C         0.3360524037    1.5567327207   -0.7738250717
      4  H        -0.7351581452    1.5660632951   -1.0218505794
      5  H         0.5615985358    2.4690567577   -0.2014512139
      6  H         0.8981707971    1.6107390455   -1.7189358347
      7  C         2.6422418276    0.0003113133    0.6235819548
      8  H         2.9167471595    0.8884958315    1.2120579797
      9  H         3.2605156273    0.0003208348   -0.2872814592
     10  H         2.9169608895   -0.8877218294    1.2121844169
     11  C         0.3364409523   -1.5568755687   -0.7736008417
     12  H         0.8985648195   -1.6108723163   -1.7187093797
     13  H         0.5622314456   -2.4690615226   -0.2010991851
     14  H        -0.7347689336   -1.5665205767   -1.0216205926
     15  N        -3.1064601356   -0.0001250101   -0.2838968669
     16  C        -2.9147206576   -0.0003227733    0.8547888906
     17  H        -2.7197208579   -0.0005007493    1.9131978802
   Point Group: c1    Number of degrees of freedom:    45


   Energy is   -503.073577755

 Hessian updated using BFGS update

 43 Hessian modes will be used to form the next step
  Hessian Eigenvalues:
     0.002173    0.002594    0.002928    0.003697    0.007662    0.016178
     0.016734    0.033674    0.033925    0.037577    0.043361    0.052160
     0.054042    0.054734    0.055772    0.060925    0.074381    0.082112
     0.106632    0.108147    0.114091    0.115060    0.120990    0.146346
     0.147207    0.159960    0.160000    0.160766    0.164147    0.172829
     0.198548    0.201793    0.249575    0.300186    0.323137    0.333924
     0.334276    0.334533    0.334656    0.334747    0.338806    0.434120
     1.308631

 Minimum search - taking simple RFO step
 Searching for Lamda that Minimizes Along All modes
 Value Taken    Lamda =  -0.00015889
 Step Taken.  Stepsize is  0.246015

                             Maximum     Tolerance    Cnvgd?
         Gradient           0.001140      0.000300      NO
         Displacement       0.139703      0.001200      NO
         Energy change     -0.000065      0.000001      NO


 New Cartesian Coordinates Obtained by Inverse Iteration

 Displacement from previous Coordinates is:  0.219044
 ----------------------------------------------------------------
             Standard Nuclear Orientation (Angstroms)
    I     Atom           X                Y                Z
 ----------------------------------------------------------------
    1      H       0.0390191665     0.0000525342     1.4733666510
    2      Si      0.8094183703     0.0000567566     0.1842283101
    3      C       0.3493395894     1.5600395726    -0.7823837826
    4      H      -0.7238509619     1.5768407902    -1.0202951284
    5      H       0.5846490229     2.4688478418    -0.2086415296
    6      H       0.9034115830     1.6144799002    -1.7317957734
    7      C       2.6522643914     0.0003120216     0.6252809202
    8      H       2.9198790845     0.8883654548     1.2167695783
    9      H       3.2800057657     0.0003230605    -0.2786789627
   10      H       2.9200995428    -0.8875834089     1.2169029147
   11      C       0.3497233698    -1.5601801399    -0.7821627852
   12      H       0.9038070267    -1.6146230762    -1.7315683909
   13      H       0.5852694819    -2.4688465811    -0.2082870312
   14      H      -0.7234633863    -1.5772809072    -1.0200717511
   15      N      -3.1697170357    -0.0001388619    -0.2625456899
   16      C      -2.9684155350    -0.0003305384     0.8747706769
   17      H      -2.7611494759    -0.0005044186     1.9305617739
 ----------------------------------------------------------------
 Nuclear Repulsion Energy =         270.75059088 hartrees
 There are       28 alpha and       28 beta electrons
 Applying Cartesian multipole field
    Component          Value
    ---------          -----
     (2,0,0)        1.00000E-11
     (0,2,0)        2.00000E-11
     (0,0,2)       -3.00000E-11
 Nucleus-field energy     =     0.0000000080 hartrees
 Requested basis set is def2-SVPD
 There are 94 shells and 212 basis functions
 A cutoff of  1.0D-14 yielded   4318 shell pairs
 There are     22044 function pairs (     24632 Cartesian)
 Smallest overlap matrix eigenvalue = 1.78E-04
 Guess MOs from SCF MO coefficient file

 -----------------------------------------------------------------------
  General SCF calculation program by
  Eric Jon Sundstrom, Paul Horn, Yuezhi Mao, Dmitri Zuev, Alec White,
  David Stuck, Shaama M.S., Shane Yost, Joonho Lee, David Small,
  Daniel Levine, Susi Lehtola, Hugh Burton, Evgeny Epifanovsky,
  Bang C. Huynh
 -----------------------------------------------------------------------
 Exchange:     0.2000 Hartree-Fock + 0.0800 Slater + 0.7200 B88
 Correlation:  0.1900 VWN1RPA + 0.8100 LYP
 Using Euler-Maclaurin-Lebedev (99,590) quadrature formula
 A restricted SCF calculation will be
 performed using DIIS
 SCF converges when DIIS error is below 1.0e-08
 ---------------------------------------
  Cycle       Energy         DIIS error
 ---------------------------------------
    1    -503.0734675329      2.53e-04  
    2    -503.0736889120      1.92e-05  
    3    -503.0736908659      1.44e-05  
    4    -503.0736918079      9.87e-06  
    5    -503.0736922511      2.86e-06  
    6    -503.0736922948      4.14e-07  
    7    -503.0736922959      1.04e-07  
    8    -503.0736922960      3.15e-08  
    9    -503.0736922960      8.56e-09  Convergence criterion met
 ---------------------------------------
 SCF time:   CPU 360.64s  wall 23.00s 
 SCF   energy =  -503.07369230
 Total energy =  -503.07369230
 
 --------------------------------------------------------------
 
                    Orbital Energies (a.u.)
 --------------------------------------------------------------
 
 Alpha MOs
 -- Occupied --
-66.1081 -14.3610 -10.2535 -10.1685 -10.1650 -10.1650  -5.2702  -3.6327
 -3.6320  -3.6319  -0.9225  -0.7067  -0.6724  -0.6706  -0.6082  -0.4774
 -0.4183  -0.4089  -0.4087  -0.3932  -0.3910  -0.3901  -0.3830  -0.3721
 -0.3716  -0.3132  -0.3063  -0.3059
 -- Virtual --
 -0.0088  -0.0079   0.0132   0.0253   0.0372   0.0375   0.0654   0.0702
  0.0861   0.0872   0.0929   0.0991   0.1055   0.1151   0.1207   0.1225
  0.1317   0.1369   0.1419   0.1470   0.1577   0.1605   0.1709   0.2004
  0.2100   0.2103   0.2178   0.2236   0.2266   0.2382   0.2489   0.2576
  0.2633   0.2720   0.2935   0.3008   0.3084   0.3124   0.3141   0.3202
  0.3315   0.3370   0.3452   0.3500   0.3559   0.3598   0.3615   0.3631
  0.3688   0.3739   0.3875   0.3921   0.3986   0.4054   0.4066   0.4120
  0.4155   0.4207   0.4300   0.4408   0.4564   0.4586   0.4594   0.4632
  0.4814   0.4815   0.4937   0.5120   0.5151   0.5222   0.5240   0.5338
  0.5430   0.5433   0.5566   0.5585   0.5803   0.5903   0.5953   0.6087
  0.6236   0.6344   0.6656   0.6768   0.6823   0.6993   0.7305   0.7326
  0.7602   0.7697   0.8087   0.8225   0.8365   0.8587   0.8750   0.8989
  0.9091   0.9244   0.9368   0.9381   0.9749   0.9791   0.9793   0.9907
  0.9930   1.0022   1.0079   1.0377   1.0562   1.0654   1.0744   1.0960
  1.1371   1.1443   1.1494   1.1650   1.1683   1.1827   1.2428   1.2562
  1.2915   1.2980   1.3095   1.3362   1.3875   1.4930   1.5490   1.5627
  1.5947   1.6010   1.6335   1.6564   1.6861   1.6932   1.7064   1.7118
  1.7234   1.8128   1.8265   1.8277   1.8479   1.9131   1.9144   1.9216
  1.9353   1.9503   1.9518   1.9781   1.9931   2.0034   2.0213   2.0366
  2.0404   2.0645   2.0938   2.1047   2.1246   2.1415   2.1890   2.2312
  2.3505   2.3864   2.3903   2.4722   2.4797   2.5056   2.5093   2.5134
  2.5226   2.5303   2.5398   2.7907   2.7924   2.8017   3.0046   3.0134
  3.0651   3.0744   3.0823   3.1061   3.1168   3.1347   3.1834   3.7952
 --------------------------------------------------------------
 
          Ground-State Mulliken Net Atomic Charges

     Atom                 Charge (a.u.)
  ----------------------------------------
      1 H                     0.259481
      2 Si                   -0.461637
      3 C                     0.486965
      4 H                    -0.244620
      5 H                    -0.114863
      6 H                    -0.091346
      7 C                     0.487105
      8 H                    -0.133995
      9 H                    -0.133790
     10 H                    -0.134011
     11 C                     0.486884
     12 H                    -0.091366
     13 H                    -0.114867
     14 H                    -0.244522
     15 N                    -0.032312
     16 C                     0.326260
     17 H                    -0.249366
  ----------------------------------------
  Sum of atomic charges =     0.000000

 -----------------------------------------------------------------
                    Cartesian Multipole Moments
 -----------------------------------------------------------------
    Charge (ESU x 10^10)
                 0.0000
    Dipole Moment (Debye)
         X       0.7361      Y      -0.0005      Z       2.2672
       Tot       2.3837
    Quadrupole Moments (Debye-Ang)
        XX     -50.9807     XY       0.0013     YY     -47.9055
        XZ      -8.8147     YZ      -0.0012     ZZ     -44.4525
    Octopole Moments (Debye-Ang^2)
       XXX      11.5653    XXY      -0.0037    XYY       1.5062
       YYY       0.0041    XXZ      22.7719    XYZ       0.0028
       YYZ       3.4405    XZZ      -8.9406    YZZ      -0.0020
       ZZZ       6.2098
    Hexadecapole Moments (Debye-Ang^3)
      XXXX   -1232.4324   XXXY      -0.0265   XXYY    -243.4392
      XYYY      -0.0299   YYYY    -333.4171   XXXZ     -77.9264
      XXYZ      -0.0088   XYYZ       3.8807   YYYZ       0.0065
      XXZZ    -195.0819   XYZZ      -0.0043   YYZZ     -93.0110
      XZZZ     -28.0852   YZZZ       0.0013   ZZZZ    -204.4102
 -----------------------------------------------------------------
 Calculating analytic gradient of the SCF energy
 Gradient of SCF Energy
            1           2           3           4           5           6
    1   0.0001693  -0.0007204  -0.0005016   0.0002034  -0.0000983  -0.0002223
    2   0.0000003  -0.0000001   0.0010889   0.0001999  -0.0003242   0.0001115
    3  -0.0000015   0.0007576  -0.0006214   0.0000438  -0.0003069   0.0003643
            7           8           9          10          11          12
    1   0.0013386  -0.0000431  -0.0001065  -0.0000434  -0.0005025  -0.0002221
    2  -0.0000010  -0.0003669   0.0000001   0.0003680  -0.0010882  -0.0001120
    3   0.0004516  -0.0002221   0.0004173  -0.0002227  -0.0006224   0.0003640
           13          14          15          16          17
    1  -0.0000970   0.0002034   0.0002886   0.0004307  -0.0000766
    2   0.0003228  -0.0001992   0.0000006  -0.0000007   0.0000002
    3  -0.0003059   0.0000435  -0.0016876   0.0026153  -0.0010668
 Max gradient component =       2.615E-03
 RMS gradient           =       6.167E-04
 Gradient time:  CPU 115.70 s  wall 7.31 s
 Geometry Optimization Parameters
   NAtoms,    NIC,     NZ,  NCons,   NDum,   NFix, NCnnct, MaxDiis
       17     141       0       0       0       0       0       0

 Cartesian Hessian Update
 Hessian updated using BFGS update


** GEOMETRY OPTIMIZATION IN DELOCALIZED INTERNAL COORDINATES **
   Searching for a Minimum

   Optimization Cycle:   4

                       Coordinates (Angstroms)
     ATOM                X               Y               Z
      1  H         0.0390191665    0.0000525342    1.4733666510
      2  Si        0.8094183703    0.0000567566    0.1842283101
      3  C         0.3493395894    1.5600395726   -0.7823837826
      4  H        -0.7238509619    1.5768407902   -1.0202951284
      5  H         0.5846490229    2.4688478418   -0.2086415296
      6  H         0.9034115830    1.6144799002   -1.7317957734
      7  C         2.6522643914    0.0003120216    0.6252809202
      8  H         2.9198790845    0.8883654548    1.2167695783
      9  H         3.2800057657    0.0003230605   -0.2786789627
     10  H         2.9200995428   -0.8875834089    1.2169029147
     11  C         0.3497233698   -1.5601801399   -0.7821627852
     12  H         0.9038070267   -1.6146230762   -1.7315683909
     13  H         0.5852694819   -2.4688465811   -0.2082870312
     14  H        -0.7234633863   -1.5772809072   -1.0200717511
     15  N        -3.1697170357   -0.0001388619   -0.2625456899
     16  C        -2.9684155350   -0.0003305384    0.8747706769
     17  H        -2.7611494759   -0.0005044186    1.9305617739
   Point Group: c1    Number of degrees of freedom:    45


   Energy is   -503.073692296

 Hessian updated using BFGS update

 43 Hessian modes will be used to form the next step
  Hessian Eigenvalues:
     0.001300    0.002594    0.002928    0.003565    0.016178    0.016695
     0.033674    0.033995    0.037893    0.043361    0.052178    0.054129
     0.054734    0.055772    0.060517    0.074345    0.082112    0.106683
     0.108147    0.112989    0.113986    0.115060    0.121277    0.145513
     0.147207    0.160368    0.161425    0.164274    0.173215    0.198548
     0.201780    0.249969    0.300186    0.323200    0.333831    0.333926
     0.334286    0.334533    0.334655    0.334747    0.338929    0.425592
     1.308240

 Minimum search - taking simple RFO step
 Searching for Lamda that Minimizes Along All modes
 Value Taken    Lamda =  -0.00010291
 Step Taken.  Stepsize is  0.235936

                             Maximum     Tolerance    Cnvgd?
         Gradient           0.001821      0.000300      NO
         Displacement       0.130026      0.001200      NO
         Energy change     -0.000115      0.000001      NO


 New Cartesian Coordinates Obtained by Inverse Iteration

 Displacement from previous Coordinates is:  0.210883
 ----------------------------------------------------------------
             Standard Nuclear Orientation (Angstroms)
    I     Atom           X                Y                Z
 ----------------------------------------------------------------
    1      H       0.0422782420     0.0000511067     1.4612320987
    2      Si      0.8198530409     0.0000573294     0.1766261891
    3      C       0.3637230262     1.5599656885    -0.7894732921
    4      H      -0.7113377894     1.5827575943    -1.0194684278
    5      H       0.6074871348     2.4670340330    -0.2158593005
    6      H       0.9116883667     1.6121315203    -1.7427220834
    7      C       2.6595235920     0.0003132588     0.6258501012
    8      H       2.9226004674     0.8886675579     1.2194624864
    9      H       3.2932474364     0.0003263822    -0.2741038228
   10      H       2.9228248184    -0.8878826966     1.2195971077
   11      C       0.3641020067    -1.5601019033    -0.7892526017
   12      H       0.9120830250    -1.6122782276    -1.7424919846
   13      H       0.6080898896    -2.4670261156    -0.2155022077
   14      H      -0.7109525709    -1.5831838506    -1.0192482685
   15      N      -3.2314538128    -0.0001556547    -0.2414322925
   16      C      -3.0209973352    -0.0003390290     0.8940309063
   17      H      -2.8024695376    -0.0005069937     1.9482053921
 ----------------------------------------------------------------
 Nuclear Repulsion Energy =         269.66610645 hartrees
 There are       28 alpha and       28 beta electrons
 Applying Cartesian multipole field
    Component          Value
    ---------          -----
     (2,0,0)        1.00000E-11
     (0,2,0)        2.00000E-11
     (0,0,2)       -3.00000E-11
 Nucleus-field energy     =     0.0000000082 hartrees
 Requested basis set is def2-SVPD
 There are 94 shells and 212 basis functions
 A cutoff of  1.0D-14 yielded   4313 shell pairs
 There are     22011 function pairs (     24593 Cartesian)
 Smallest overlap matrix eigenvalue = 1.79E-04
 Guess MOs from SCF MO coefficient file

 -----------------------------------------------------------------------
  General SCF calculation program by
  Eric Jon Sundstrom, Paul Horn, Yuezhi Mao, Dmitri Zuev, Alec White,
  David Stuck, Shaama M.S., Shane Yost, Joonho Lee, David Small,
  Daniel Levine, Susi Lehtola, Hugh Burton, Evgeny Epifanovsky,
  Bang C. Huynh
 -----------------------------------------------------------------------
 Exchange:     0.2000 Hartree-Fock + 0.0800 Slater + 0.7200 B88
 Correlation:  0.1900 VWN1RPA + 0.8100 LYP
 Using Euler-Maclaurin-Lebedev (99,590) quadrature formula
 A restricted SCF calculation will be
 performed using DIIS
 SCF converges when DIIS error is below 1.0e-08
 ---------------------------------------
  Cycle       Energy         DIIS error
 ---------------------------------------
    1    -503.0735940474      2.25e-04  
    2    -503.0737628670      1.55e-05  
    3    -503.0737642467      1.20e-05  
    4    -503.0737646913      9.90e-06  
    5    -503.0737651562      2.02e-06  
    6    -503.0737651795      3.69e-07  
    7    -503.0737651803      8.46e-08  
    8    -503.0737651804      2.08e-08  
    9    -503.0737651804      3.28e-09  Convergence criterion met
 ---------------------------------------
 SCF time:   CPU 373.74s  wall 24.00s 
 SCF   energy =  -503.07376518
 Total energy =  -503.07376518
 
 --------------------------------------------------------------
 
                    Orbital Energies (a.u.)
 --------------------------------------------------------------
 
 Alpha MOs
 -- Occupied --
-66.1079 -14.3609 -10.2534 -10.1685 -10.1652 -10.1652  -5.2701  -3.6325
 -3.6318  -3.6317  -0.9224  -0.7069  -0.6725  -0.6708  -0.6080  -0.4774
 -0.4183  -0.4089  -0.4086  -0.3933  -0.3911  -0.3901  -0.3829  -0.3724
 -0.3720  -0.3132  -0.3064  -0.3060
 -- Virtual --
 -0.0086  -0.0075   0.0130   0.0254   0.0371   0.0371   0.0649   0.0700
  0.0859   0.0868   0.0927   0.0989   0.1046   0.1147   0.1206   0.1221
  0.1320   0.1356   0.1413   0.1464   0.1574   0.1603   0.1699   0.1998
  0.2095   0.2098   0.2184   0.2230   0.2252   0.2364   0.2486   0.2573
  0.2622   0.2714   0.2928   0.3008   0.3077   0.3124   0.3136   0.3188
  0.3314   0.3366   0.3447   0.3494   0.3530   0.3588   0.3607   0.3630
  0.3685   0.3733   0.3861   0.3915   0.3982   0.4045   0.4066   0.4101
  0.4139   0.4191   0.4293   0.4400   0.4558   0.4562   0.4591   0.4621
  0.4795   0.4799   0.4911   0.5113   0.5121   0.5214   0.5240   0.5323
  0.5418   0.5426   0.5530   0.5584   0.5764   0.5893   0.5942   0.6090
  0.6201   0.6347   0.6602   0.6739   0.6766   0.6991   0.7275   0.7325
  0.7563   0.7657   0.8084   0.8201   0.8343   0.8581   0.8752   0.8964
  0.9077   0.9244   0.9360   0.9376   0.9744   0.9758   0.9778   0.9899
  0.9913   0.9971   1.0061   1.0384   1.0545   1.0640   1.0724   1.0939
  1.1347   1.1435   1.1472   1.1644   1.1665   1.1813   1.2391   1.2530
  1.2915   1.2968   1.3095   1.3340   1.3842   1.4907   1.5443   1.5598
  1.5938   1.6006   1.6313   1.6555   1.6835   1.6931   1.7056   1.7106
  1.7215   1.8122   1.8238   1.8270   1.8441   1.9136   1.9141   1.9201
  1.9335   1.9486   1.9520   1.9742   1.9916   2.0012   2.0211   2.0347
  2.0392   2.0639   2.0934   2.1035   2.1253   2.1420   2.1871   2.2308
  2.3499   2.3834   2.3876   2.4685   2.4771   2.5047   2.5091   2.5124
  2.5222   2.5300   2.5393   2.7905   2.7915   2.8011   3.0039   3.0124
  3.0639   3.0735   3.0813   3.1050   3.1159   3.1330   3.1824   3.7941
 --------------------------------------------------------------
 
          Ground-State Mulliken Net Atomic Charges

     Atom                 Charge (a.u.)
  ----------------------------------------
      1 H                     0.261670
      2 Si                   -0.456516
      3 C                     0.477454
      4 H                    -0.235888
      5 H                    -0.113940
      6 H                    -0.094551
      7 C                     0.484769
      8 H                    -0.132245
      9 H                    -0.132835
     10 H                    -0.132261
     11 C                     0.477386
     12 H                    -0.094571
     13 H                    -0.113946
     14 H                    -0.235800
     15 N                    -0.029444
     16 C                     0.320546
     17 H                    -0.249827
  ----------------------------------------
  Sum of atomic charges =     0.000000

 -----------------------------------------------------------------
                    Cartesian Multipole Moments
 -----------------------------------------------------------------
    Charge (ESU x 10^10)
                -0.0000
    Dipole Moment (Debye)
         X       0.7743      Y      -0.0004      Z       2.2717
       Tot       2.4000
    Quadrupole Moments (Debye-Ang)
        XX     -51.1986     XY       0.0012     YY     -47.8990
        XZ      -8.9389     YZ      -0.0013     ZZ     -44.3246
    Octopole Moments (Debye-Ang^2)
       XXX      13.6896    XXY      -0.0035    XYY       1.7862
       YYY       0.0044    XXZ      23.4128    XYZ       0.0029
       YYZ       3.4164    XZZ      -9.1279    YZZ      -0.0019
       ZZZ       6.3250
    Hexadecapole Moments (Debye-Ang^3)
      XXXX   -1267.6844   XXXY      -0.0292   XXYY    -248.1468
      XYYY      -0.0320   YYYY    -333.5273   XXXZ     -77.9662
      XXYZ      -0.0093   XYYZ       5.0729   YYYZ       0.0068
      XXZZ    -198.4438   XYZZ      -0.0049   YYZZ     -93.3263
      XZZZ     -25.7061   YZZZ       0.0014   ZZZZ    -205.1610
 -----------------------------------------------------------------
 Calculating analytic gradient of the SCF energy
 Gradient of SCF Energy
            1           2           3           4           5           6
    1   0.0001652  -0.0005186  -0.0003293   0.0001441  -0.0000182  -0.0001531
    2   0.0000002  -0.0000001   0.0006650   0.0001567  -0.0002323   0.0001128
    3  -0.0000899   0.0005474  -0.0005341   0.0000896  -0.0001078   0.0002350
            7           8           9          10          11          12
    1   0.0010085  -0.0001085  -0.0000216  -0.0001086  -0.0003303  -0.0001529
    2  -0.0000008  -0.0001959   0.0000001   0.0001966  -0.0006647  -0.0001131
    3   0.0001647  -0.0001249   0.0003210  -0.0001253  -0.0005350   0.0002349
           13          14          15          16          17
    1  -0.0000173   0.0001441   0.0003113  -0.0000823   0.0000676
    2   0.0002316  -0.0001561   0.0000004  -0.0000004   0.0000001
    3  -0.0001071   0.0000895  -0.0011735   0.0017553  -0.0006395
 Max gradient component =       1.755E-03
 RMS gradient           =       4.190E-04
 Gradient time:  CPU 116.11 s  wall 7.35 s
 Geometry Optimization Parameters
   NAtoms,    NIC,     NZ,  NCons,   NDum,   NFix, NCnnct, MaxDiis
       17     141       0       0       0       0       0       0

 Cartesian Hessian Update
 Hessian updated using BFGS update


** GEOMETRY OPTIMIZATION IN DELOCALIZED INTERNAL COORDINATES **
   Searching for a Minimum

   Optimization Cycle:   5

                       Coordinates (Angstroms)
     ATOM                X               Y               Z
      1  H         0.0422782420    0.0000511067    1.4612320987
      2  Si        0.8198530409    0.0000573294    0.1766261891
      3  C         0.3637230262    1.5599656885   -0.7894732921
      4  H        -0.7113377894    1.5827575943   -1.0194684278
      5  H         0.6074871348    2.4670340330   -0.2158593005
      6  H         0.9116883667    1.6121315203   -1.7427220834
      7  C         2.6595235920    0.0003132588    0.6258501012
      8  H         2.9226004674    0.8886675579    1.2194624864
      9  H         3.2932474364    0.0003263822   -0.2741038228
     10  H         2.9228248184   -0.8878826966    1.2195971077
     11  C         0.3641020067   -1.5601019033   -0.7892526017
     12  H         0.9120830250   -1.6122782276   -1.7424919846
     13  H         0.6080898896   -2.4670261156   -0.2155022077
     14  H        -0.7109525709   -1.5831838506   -1.0192482685
     15  N        -3.2314538128   -0.0001556547   -0.2414322925
     16  C        -3.0209973352   -0.0003390290    0.8940309063
     17  H        -2.8024695376   -0.0005069937    1.9482053921
   Point Group: c1    Number of degrees of freedom:    45


   Energy is   -503.073765180

 Hessian updated using BFGS update

 44 Hessian modes will be used to form the next step
  Hessian Eigenvalues:
     0.000955    0.002594    0.002928    0.003506    0.007662    0.016178
     0.016624    0.033674    0.034057    0.037405    0.043361    0.052182
     0.054196    0.054734    0.055772    0.060210    0.074452    0.082112
     0.106696    0.108147    0.112989    0.114025    0.115060    0.121816
     0.144647    0.147207    0.160198    0.161802    0.164198    0.173464
     0.198548    0.201735    0.234536    0.300186    0.322856    0.333831
     0.333925    0.334312    0.334533    0.334657    0.334747    0.338548
     0.389653    1.281996

 Minimum search - taking simple RFO step
 Searching for Lamda that Minimizes Along All modes
 Value Taken    Lamda =  -0.00004615
 Step Taken.  Stepsize is  0.172202

                             Maximum     Tolerance    Cnvgd?
         Gradient           0.001226      0.000300      NO
         Displacement       0.088396      0.001200      NO
         Energy change     -0.000073      0.000001      NO


 New Cartesian Coordinates Obtained by Inverse Iteration

 Displacement from previous Coordinates is:  0.155267
 ----------------------------------------------------------------
             Standard Nuclear Orientation (Angstroms)
    I     Atom           X                Y                Z
 ----------------------------------------------------------------
    1      H       0.0432503128     0.0000506151     1.4544301210
    2      Si      0.8272552997     0.0000590336     0.1734367142
    3      C       0.3748128671     1.5580233513    -0.7939112117
    4      H      -0.7012061839     1.5832771414    -1.0208742352
    5      H       0.6223920064     2.4658385553    -0.2224466868
    6      H       0.9203006091     1.6063982195    -1.7491410400
    7      C       2.6640409992     0.0003145046     0.6264529998
    8      H       2.9263943098     0.8889742421     1.2205702427
    9      H       3.2990025704     0.0003293614    -0.2730390125
   10      H       2.9266179496    -0.8881914784     1.2207005799
   11      C       0.3751888887    -1.5581550202    -0.7936888136
   12      H       0.9206934987    -1.6065429378    -1.7489081461
   13      H       0.6229809232    -2.4658266459    -0.2220878458
   14      H      -0.7008228254    -1.5836956679    -1.0206548952
   15      N      -3.2775187422    -0.0001713566    -0.2253810738
   16      C      -3.0597217132    -0.0003455752     0.9083617631
   17      H      -2.8333707701    -0.0005063424     1.9616305402
 ----------------------------------------------------------------
 Nuclear Repulsion Energy =         268.96186436 hartrees
 There are       28 alpha and       28 beta electrons
 Applying Cartesian multipole field
    Component          Value
    ---------          -----
     (2,0,0)        1.00000E-11
     (0,2,0)        2.00000E-11
     (0,0,2)       -3.00000E-11
 Nucleus-field energy     =     0.0000000083 hartrees
 Requested basis set is def2-SVPD
 There are 94 shells and 212 basis functions
 A cutoff of  1.0D-14 yielded   4305 shell pairs
 There are     21955 function pairs (     24535 Cartesian)
 Smallest overlap matrix eigenvalue = 1.80E-04
 Guess MOs from SCF MO coefficient file

 -----------------------------------------------------------------------
  General SCF calculation program by
  Eric Jon Sundstrom, Paul Horn, Yuezhi Mao, Dmitri Zuev, Alec White,
  David Stuck, Shaama M.S., Shane Yost, Joonho Lee, David Small,
  Daniel Levine, Susi Lehtola, Hugh Burton, Evgeny Epifanovsky,
  Bang C. Huynh
 -----------------------------------------------------------------------
 Exchange:     0.2000 Hartree-Fock + 0.0800 Slater + 0.7200 B88
 Correlation:  0.1900 VWN1RPA + 0.8100 LYP
 Using Euler-Maclaurin-Lebedev (99,590) quadrature formula
 A restricted SCF calculation will be
 performed using DIIS
 SCF converges when DIIS error is below 1.0e-08
 ---------------------------------------
  Cycle       Energy         DIIS error
 ---------------------------------------
    1    -503.0737133080      1.60e-04  
    2    -503.0737940854      1.03e-05  
    3    -503.0737948415      6.47e-06  
    4    -503.0737949013      6.43e-06  
    5    -503.0737950972      1.45e-06  
    6    -503.0737951088      2.14e-07  
    7    -503.0737951091      3.62e-08  
    8    -503.0737951091      1.76e-08  
    9    -503.0737951091      4.34e-09  Convergence criterion met
 ---------------------------------------
 SCF time:   CPU 358.19s  wall 23.00s 
 SCF   energy =  -503.07379511
 Total energy =  -503.07379511
 
 --------------------------------------------------------------
 
                    Orbital Energies (a.u.)
 --------------------------------------------------------------
 
 Alpha MOs
 -- Occupied --
-66.1075 -14.3608 -10.2532 -10.1686 -10.1653 -10.1653  -5.2698  -3.6323
 -3.6316  -3.6315  -0.9224  -0.7072  -0.6726  -0.6709  -0.6077  -0.4773
 -0.4185  -0.4091  -0.4085  -0.3934  -0.3912  -0.3901  -0.3827  -0.3726
 -0.3722  -0.3131  -0.3065  -0.3062
 -- Virtual --
 -0.0085  -0.0072   0.0130   0.0253   0.0368   0.0370   0.0644   0.0699
  0.0856   0.0866   0.0925   0.0989   0.1040   0.1144   0.1205   0.1217
  0.1322   0.1348   0.1409   0.1461   0.1573   0.1601   0.1692   0.1993
  0.2093   0.2097   0.2192   0.2228   0.2241   0.2351   0.2485   0.2570
  0.2615   0.2710   0.2923   0.3008   0.3072   0.3122   0.3133   0.3180
  0.3312   0.3364   0.3444   0.3489   0.3508   0.3580   0.3601   0.3629
  0.3683   0.3729   0.3851   0.3913   0.3979   0.4040   0.4067   0.4086
  0.4132   0.4180   0.4287   0.4396   0.4534   0.4561   0.4590   0.4617
  0.4781   0.4789   0.4897   0.5098   0.5109   0.5211   0.5239   0.5313
  0.5412   0.5417   0.5507   0.5584   0.5736   0.5883   0.5935   0.6094
  0.6177   0.6351   0.6566   0.6719   0.6726   0.6985   0.7255   0.7328
  0.7539   0.7628   0.8086   0.8188   0.8326   0.8577   0.8754   0.8947
  0.9065   0.9245   0.9352   0.9369   0.9706   0.9752   0.9768   0.9893
  0.9894   0.9960   1.0050   1.0388   1.0541   1.0629   1.0705   1.0926
  1.1333   1.1436   1.1453   1.1644   1.1660   1.1812   1.2365   1.2506
  1.2916   1.2947   1.3098   1.3333   1.3825   1.4892   1.5416   1.5579
  1.5933   1.6002   1.6301   1.6546   1.6817   1.6929   1.7055   1.7098
  1.7207   1.8115   1.8220   1.8246   1.8428   1.9141   1.9142   1.9189
  1.9323   1.9478   1.9517   1.9717   1.9903   1.9995   2.0207   2.0331
  2.0383   2.0633   2.0938   2.1032   2.1261   2.1419   2.1854   2.2300
  2.3492   2.3811   2.3855   2.4663   2.4750   2.5039   2.5087   2.5112
  2.5218   2.5295   2.5389   2.7899   2.7906   2.8005   3.0036   3.0119
  3.0627   3.0726   3.0800   3.1043   3.1153   3.1319   3.1818   3.7934
 --------------------------------------------------------------
 
          Ground-State Mulliken Net Atomic Charges

     Atom                 Charge (a.u.)
  ----------------------------------------
      1 H                     0.262634
      2 Si                   -0.455595
      3 C                     0.471092
      4 H                    -0.228908
      5 H                    -0.114663
      6 H                    -0.095092
      7 C                     0.482830
      8 H                    -0.131708
      9 H                    -0.130024
     10 H                    -0.131720
     11 C                     0.471036
     12 H                    -0.095110
     13 H                    -0.114674
     14 H                    -0.228829
     15 N                    -0.027048
     16 C                     0.315176
     17 H                    -0.249398
  ----------------------------------------
  Sum of atomic charges =     0.000000

 -----------------------------------------------------------------
                    Cartesian Multipole Moments
 -----------------------------------------------------------------
    Charge (ESU x 10^10)
                -0.0000
    Dipole Moment (Debye)
         X       0.8049      Y      -0.0004      Z       2.2743
       Tot       2.4126
    Quadrupole Moments (Debye-Ang)
        XX     -51.3621     XY       0.0012     YY     -47.8920
        XZ      -9.0262     YZ      -0.0013     ZZ     -44.2331
    Octopole Moments (Debye-Ang^2)
       XXX      15.3461    XXY      -0.0032    XYY       1.9977
       YYY       0.0045    XXZ      23.8718    XYZ       0.0030
       YYZ       3.3704    XZZ      -9.2709    YZZ      -0.0019
       ZZZ       6.3114
    Hexadecapole Moments (Debye-Ang^3)
      XXXX   -1294.3432   XXXY      -0.0317   XXYY    -251.5609
      XYYY      -0.0338   YYYY    -332.8676   XXXZ     -77.9020
      XXYZ      -0.0096   XYYZ       5.9831   YYYZ       0.0070
      XXZZ    -200.8632   XYZZ      -0.0054   YYZZ     -93.5122
      XZZZ     -23.9020   YZZZ       0.0016   ZZZZ    -205.8329
 -----------------------------------------------------------------
 Calculating analytic gradient of the SCF energy
 Gradient of SCF Energy
            1           2           3           4           5           6
    1   0.0000621  -0.0001645  -0.0000644  -0.0000102   0.0000426  -0.0000477
    2   0.0000000  -0.0000000   0.0000593   0.0000910  -0.0000711   0.0000667
    3  -0.0000664   0.0000732  -0.0002140   0.0000984   0.0000613   0.0000499
            7           8           9          10          11          12
    1   0.0003054  -0.0000927   0.0000450  -0.0000926  -0.0000647  -0.0000476
    2  -0.0000003  -0.0000072   0.0000000   0.0000074  -0.0000594  -0.0000668
    3  -0.0001070  -0.0000045   0.0001270  -0.0000045  -0.0002144   0.0000499
           13          14          15          16          17
    1   0.0000429  -0.0000101   0.0004116  -0.0005082   0.0001931
    2   0.0000711  -0.0000908   0.0000002  -0.0000002  -0.0000000
    3   0.0000615   0.0000985  -0.0003373   0.0004494  -0.0001209
 Max gradient component =       5.082E-04
 RMS gradient           =       1.508E-04
 Gradient time:  CPU 115.49 s  wall 7.31 s
 Geometry Optimization Parameters
   NAtoms,    NIC,     NZ,  NCons,   NDum,   NFix, NCnnct, MaxDiis
       17     141       0       0       0       0       0       0

 Cartesian Hessian Update
 Hessian updated using BFGS update


** GEOMETRY OPTIMIZATION IN DELOCALIZED INTERNAL COORDINATES **
   Searching for a Minimum

   Optimization Cycle:   6

                       Coordinates (Angstroms)
     ATOM                X               Y               Z
      1  H         0.0432503128    0.0000506151    1.4544301210
      2  Si        0.8272552997    0.0000590336    0.1734367142
      3  C         0.3748128671    1.5580233513   -0.7939112117
      4  H        -0.7012061839    1.5832771414   -1.0208742352
      5  H         0.6223920064    2.4658385553   -0.2224466868
      6  H         0.9203006091    1.6063982195   -1.7491410400
      7  C         2.6640409992    0.0003145046    0.6264529998
      8  H         2.9263943098    0.8889742421    1.2205702427
      9  H         3.2990025704    0.0003293614   -0.2730390125
     10  H         2.9266179496   -0.8881914784    1.2207005799
     11  C         0.3751888887   -1.5581550202   -0.7936888136
     12  H         0.9206934987   -1.6065429378   -1.7489081461
     13  H         0.6229809232   -2.4658266459   -0.2220878458
     14  H        -0.7008228254   -1.5836956679   -1.0206548952
     15  N        -3.2775187422   -0.0001713566   -0.2253810738
     16  C        -3.0597217132   -0.0003455752    0.9083617631
     17  H        -2.8333707701   -0.0005063424    1.9616305402
   Point Group: c1    Number of degrees of freedom:    45


   Energy is   -503.073795109

 Hessian updated using BFGS update

 43 Hessian modes will be used to form the next step
  Hessian Eigenvalues:
     0.000817    0.002594    0.002928    0.003409    0.007662    0.016178
     0.016350    0.033461    0.033674    0.035213    0.043361    0.052182
     0.053789    0.054734    0.055772    0.060096    0.074443    0.082112
     0.105780    0.108147    0.112989    0.114104    0.115060    0.119958
     0.144072    0.147207    0.156710    0.160722    0.164353    0.171932
     0.198548    0.201869    0.236782    0.300186    0.322669    0.333831
     0.333922    0.334147    0.334533    0.334655    0.338514    0.392050
     1.278167

 Minimum search - taking simple RFO step
 Searching for Lamda that Minimizes Along All modes
 Value Taken    Lamda =  -0.00001220
 Step Taken.  Stepsize is  0.082093

                             Maximum     Tolerance    Cnvgd?
         Gradient           0.000375      0.000300      NO
         Displacement       0.037318      0.001200      NO
         Energy change     -0.000030      0.000001      NO


 New Cartesian Coordinates Obtained by Inverse Iteration

 Displacement from previous Coordinates is:  0.073405
 ----------------------------------------------------------------
             Standard Nuclear Orientation (Angstroms)
    I     Atom           X                Y                Z
 ----------------------------------------------------------------
    1      H       0.0431703063     0.0000515013     1.4528606426
    2      Si      0.8304971526     0.0000604256     0.1737812524
    3      C       0.3798109132     1.5563578920    -0.7957027359
    4      H      -0.6961091085     1.5808065290    -1.0240428944
    5      H       0.6264650760     2.4659729258    -0.2265231430
    6      H       0.9261845768     1.6020220954    -1.7507561003
    7      C       2.6662484167     0.0003149286     0.6273002957
    8      H       2.9299917935     0.8890823806     1.2208651059
    9      H       3.2997093005     0.0003304842    -0.2735073539
   10      H       2.9302125108    -0.8883033323     1.2209905309
   11      C       0.3801866717    -1.5564871316    -0.7954790878
   12      H       0.9265768145    -1.6021632382    -1.7505221882
   13      H       0.6270504466    -2.4659603529    -0.2261643213
   14      H      -0.6957260094    -1.5812234727    -1.0238238747
   15      N      -3.2994930065    -0.0001810441    -0.2173518621
   16      C      -3.0771818095    -0.0003480422     0.9153658266
   17      H      -2.8473040452    -0.0005025486     1.9681599073
 ----------------------------------------------------------------
 Nuclear Repulsion Energy =         268.64469017 hartrees
 There are       28 alpha and       28 beta electrons
 Applying Cartesian multipole field
    Component          Value
    ---------          -----
     (2,0,0)        1.00000E-11
     (0,2,0)        2.00000E-11
     (0,0,2)       -3.00000E-11
 Nucleus-field energy     =     0.0000000083 hartrees
 Requested basis set is def2-SVPD
 There are 94 shells and 212 basis functions
 A cutoff of  1.0D-14 yielded   4299 shell pairs
 There are     21941 function pairs (     24521 Cartesian)
 Smallest overlap matrix eigenvalue = 1.81E-04
 Guess MOs from SCF MO coefficient file

 -----------------------------------------------------------------------
  General SCF calculation program by
  Eric Jon Sundstrom, Paul Horn, Yuezhi Mao, Dmitri Zuev, Alec White,
  David Stuck, Shaama M.S., Shane Yost, Joonho Lee, David Small,
[...]
 IR Intens:       19.621                 78.740                  6.796
 Raman Active:       YES                    YES                    YES
               X      Y      Z        X      Y      Z        X      Y      Z
 H         -0.000 -0.329 -0.001    0.058  0.000 -0.036    0.142 -0.001  0.247
 Si        -0.000 -0.052 -0.000    0.078  0.000 -0.045   -0.026  0.000 -0.047
 C          0.078  0.033  0.006   -0.091  0.018  0.041    0.030  0.010  0.031
 H         -0.073 -0.244  0.160    0.118  0.095 -0.188   -0.025 -0.180  0.083
 H         -0.110  0.082 -0.091    0.154  0.144 -0.129   -0.049  0.073 -0.080
 H         -0.071  0.216 -0.217    0.057 -0.387  0.224   -0.035 -0.002 -0.073
 C          0.000  0.108 -0.000   -0.075 -0.000  0.066   -0.007 -0.000  0.033
 H          0.281 -0.108  0.301    0.235  0.041  0.021    0.097  0.007  0.032
 H          0.000 -0.169  0.001   -0.272  0.000 -0.350   -0.052  0.000 -0.067
 H         -0.281 -0.108 -0.301    0.235 -0.041  0.021    0.097 -0.006  0.032
 C         -0.078  0.033 -0.005   -0.091 -0.018  0.041    0.030 -0.010  0.031
 H          0.071  0.217  0.217    0.057  0.387  0.224   -0.035  0.002 -0.073
 H          0.110  0.081  0.090    0.154 -0.143 -0.129   -0.049 -0.074 -0.081
 H          0.073 -0.243 -0.160    0.118 -0.095 -0.188   -0.024  0.180  0.082
 N         -0.000 -0.011 -0.000   -0.002 -0.000  0.000    0.021 -0.000  0.040
 C          0.000  0.028  0.000   -0.000  0.000  0.002   -0.056  0.000 -0.106
 H         -0.000 -0.195 -0.000   -0.001 -0.000 -0.009    0.407 -0.003  0.762
 TransDip  -0.000 -0.142 -0.000    0.246  0.000 -0.142   -0.046  0.000 -0.070

 Mode:                22                     23                     24
 Frequency:       869.47                 928.67                 930.56
 Force Cnst:      0.5903                 0.6307                 0.6306
 Red. Mass:       1.3253                 1.2413                 1.2360
 IR Active:          YES                    YES                    YES
 IR Intens:        7.662                172.594                171.117
 Raman Active:       YES                    YES                    YES
               X      Y      Z        X      Y      Z        X      Y      Z
 H          0.000  0.296  0.001    0.366  0.000  0.640   -0.000  0.735 -0.000
 Si        -0.000 -0.054 -0.000   -0.031 -0.000 -0.053    0.000 -0.060  0.000
 C         -0.012  0.031  0.019    0.041  0.005  0.018   -0.037  0.030  0.026
 H          0.029 -0.032 -0.035   -0.031 -0.162  0.091    0.055  0.015 -0.084
 H          0.021  0.124 -0.119   -0.069  0.027 -0.034    0.049  0.138 -0.128
 H         -0.009 -0.085  0.007   -0.036  0.051 -0.097    0.001 -0.157  0.058
 C         -0.000  0.048  0.000   -0.031  0.000  0.050    0.000  0.038 -0.000
 H          0.116 -0.048  0.132    0.157  0.015  0.044    0.077 -0.038  0.102
 H         -0.000 -0.082 -0.000   -0.122 -0.000 -0.146    0.000 -0.070  0.000
 H         -0.115 -0.048 -0.132    0.157 -0.015  0.044   -0.077 -0.038 -0.102
 C          0.013  0.031 -0.018    0.041 -0.005  0.018    0.037  0.030 -0.026
 H          0.008 -0.085 -0.007   -0.036 -0.051 -0.097   -0.001 -0.157 -0.058
 H         -0.021  0.123  0.119   -0.069 -0.027 -0.034   -0.049  0.138  0.128
 H         -0.029 -0.031  0.036   -0.031  0.162  0.091   -0.055  0.014  0.084
 N          0.000  0.045  0.000   -0.010 -0.000 -0.019    0.000 -0.022  0.000
 C         -0.000 -0.119 -0.000    0.029  0.000  0.054   -0.000  0.063 -0.000
 H          0.001  0.857  0.002   -0.231 -0.000 -0.432    0.000 -0.501  0.000
 TransDip  -0.000 -0.089 -0.000   -0.207 -0.000 -0.366    0.000 -0.419  0.000

 Mode:                25                     26                     27
 Frequency:      1260.54                1260.96                1270.94
 Force Cnst:      1.1829                 1.1836                 1.1733
 Red. Mass:       1.2635                 1.2634                 1.2328
 IR Active:          YES                    YES                    YES
 IR Intens:       32.535                 32.596                  4.710
 Raman Active:       YES                    YES                    YES
               X      Y      Z        X      Y      Z        X      Y      Z
 H         -0.010  0.000 -0.019   -0.000 -0.022 -0.000    0.014  0.000 -0.007
 Si         0.006 -0.000  0.011    0.000  0.013  0.000    0.003 -0.000 -0.002
 C         -0.000  0.047 -0.036   -0.003 -0.089  0.059   -0.004 -0.069  0.048
 H         -0.088 -0.190  0.070    0.148  0.355 -0.122    0.130  0.290 -0.111
 H         -0.006 -0.116  0.193    0.027  0.201 -0.345    0.029  0.172 -0.288
 H          0.084 -0.187  0.095   -0.138  0.352 -0.146   -0.119  0.289 -0.125
 C         -0.093  0.000 -0.085   -0.000 -0.004 -0.000   -0.060 -0.000 -0.051
 H          0.385 -0.174  0.214    0.003  0.002 -0.008    0.262 -0.110  0.138
 H          0.189 -0.000  0.440    0.001  0.016  0.001    0.123  0.000  0.291
 H          0.385  0.174  0.214   -0.001  0.003  0.009    0.262  0.110  0.138
 C         -0.000 -0.047 -0.036    0.003 -0.089 -0.059   -0.004  0.069  0.048
 H          0.084  0.185  0.094    0.139  0.353  0.146   -0.119 -0.289 -0.125
 H         -0.006  0.115  0.192   -0.027  0.201  0.346    0.029 -0.172 -0.288
 H         -0.087  0.188  0.069   -0.148  0.356  0.122    0.130 -0.290 -0.111
 N          0.000 -0.000  0.000    0.000  0.000 -0.000    0.000  0.000 -0.000
 C         -0.000  0.000 -0.000   -0.000 -0.000 -0.000   -0.000  0.000 -0.000
 H          0.000 -0.000  0.001    0.000  0.001  0.000   -0.001 -0.000  0.000
 TransDip   0.093 -0.000  0.157    0.000  0.183  0.000    0.057 -0.000 -0.039

 Mode:                28                     29                     30
 Frequency:      1419.61                1422.62                1422.73
 Force Cnst:      1.2503                 1.2524                 1.2525
 Red. Mass:       1.0530                 1.0503                 1.0503
 IR Active:          YES                    YES                    YES
 IR Intens:        0.000                  0.002                  0.000
 Raman Active:       YES                    YES                    YES
               X      Y      Z        X      Y      Z        X      Y      Z
 H          0.000  0.000  0.000    0.005 -0.000  0.008    0.000  0.009  0.000
 Si        -0.000 -0.000 -0.000    0.000 -0.000  0.000    0.000  0.001  0.000
 C          0.016  0.018  0.028   -0.016  0.014  0.019    0.041 -0.007 -0.007
 H          0.194  0.054 -0.189    0.190 -0.155 -0.223   -0.135  0.320  0.192
 H         -0.221 -0.086  0.140    0.148 -0.066  0.144   -0.462  0.024 -0.104
 H         -0.179 -0.211 -0.316   -0.130  0.032 -0.179    0.045 -0.257 -0.001
 C          0.000 -0.037 -0.000    0.032 -0.000 -0.036    0.000  0.017 -0.000
 H          0.272  0.033 -0.062   -0.165 -0.301  0.373   -0.140 -0.020  0.033
 H         -0.000  0.427 -0.000   -0.096  0.003 -0.261   -0.001 -0.213 -0.004
 H         -0.272  0.033  0.062   -0.168  0.301  0.374    0.135 -0.012 -0.023
 C         -0.016  0.018 -0.028   -0.015 -0.014  0.019   -0.041 -0.007  0.007
 H          0.180 -0.211  0.316   -0.128 -0.025 -0.180   -0.049 -0.258 -0.003
 H          0.221 -0.086 -0.140    0.136  0.066  0.141    0.465  0.026  0.108
 H         -0.194  0.054  0.189    0.186  0.147 -0.218    0.140  0.324 -0.198
 N          0.000 -0.000  0.000   -0.000  0.000 -0.000   -0.000 -0.000 -0.000
 C          0.000 -0.000  0.000   -0.000  0.000 -0.000    0.000 -0.000  0.000
 H         -0.000  0.000 -0.000    0.001 -0.000  0.001    0.000  0.001  0.000
 TransDip   0.000  0.000  0.000    0.000 -0.000  0.001    0.000 -0.000  0.000

 Mode:                31                     32                     33
 Frequency:      1431.79                1431.87                1439.05
 Force Cnst:      1.2642                 1.2643                 1.2746
 Red. Mass:       1.0467                 1.0466                 1.0446
 IR Active:          YES                    YES                    YES
 IR Intens:        2.891                  2.927                  8.419
 Raman Active:       YES                    YES                    YES
               X      Y      Z        X      Y      Z        X      Y      Z
 H         -0.000  0.030 -0.000    0.015  0.000  0.026   -0.005  0.000  0.003
 Si         0.000 -0.008  0.000   -0.004 -0.000 -0.007   -0.008 -0.000  0.005
 C          0.004 -0.014 -0.023   -0.024 -0.018 -0.026   -0.029  0.010  0.010
 H         -0.203  0.072  0.223   -0.185 -0.132  0.172    0.160 -0.275 -0.208
 H         -0.010  0.078 -0.147    0.339  0.099 -0.143    0.353 -0.048  0.132
 H          0.157  0.053  0.242    0.185  0.287  0.343   -0.082  0.185 -0.076
 C         -0.000 -0.044  0.000    0.012 -0.000 -0.011   -0.020 -0.000  0.025
 H          0.360  0.041 -0.072   -0.063 -0.106  0.132    0.114  0.222 -0.278
 H          0.000  0.547  0.000   -0.038  0.003 -0.103    0.077  0.000  0.198
 H         -0.360  0.040  0.071   -0.066  0.106  0.133    0.114 -0.222 -0.278
 C         -0.004 -0.014  0.023   -0.024  0.018 -0.026   -0.029 -0.010  0.010
 H         -0.159  0.056 -0.245    0.183 -0.287  0.341   -0.082 -0.185 -0.077
 H          0.007  0.079  0.149    0.339 -0.098 -0.141    0.353  0.048  0.132
 H          0.205  0.071 -0.224   -0.183  0.133  0.170    0.160  0.275 -0.209
 N          0.000 -0.000  0.000   -0.000 -0.000 -0.000    0.000  0.000 -0.000
 C         -0.000  0.000 -0.000    0.000  0.000  0.000   -0.000  0.000  0.000
 H          0.000 -0.002  0.000   -0.001 -0.000 -0.002   -0.001 -0.000  0.000
 TransDip  -0.000  0.054 -0.000    0.027  0.000  0.048    0.081  0.000 -0.046

 Mode:                34                     35                     36
 Frequency:      2163.75                2213.19                3020.45
 Force Cnst:      2.8733                13.5457                 5.5686
 Red. Mass:       1.0416                 4.6937                 1.0360
 IR Active:          YES                    YES                    YES
 IR Intens:      391.875                 10.365                  5.030
 Raman Active:       YES                    YES                    YES
               X      Y      Z        X      Y      Z        X      Y      Z
 H          0.866  0.000 -0.496   -0.142 -0.000  0.081   -0.000 -0.002  0.000
 Si        -0.029 -0.000  0.016    0.005  0.000 -0.003   -0.000  0.001 -0.000
 C         -0.001  0.000  0.000   -0.000 -0.000  0.000   -0.004 -0.028  0.022
 H         -0.004 -0.002 -0.002    0.000  0.001 -0.000   -0.307 -0.003 -0.259
 H         -0.000  0.002  0.004   -0.000  0.000 -0.001   -0.026  0.316  0.228
 H         -0.002 -0.008  0.007    0.001 -0.001  0.000    0.379  0.013 -0.224
 C         -0.001 -0.000  0.001   -0.000 -0.000  0.000    0.000  0.001  0.000
 H         -0.002  0.004  0.001    0.001 -0.000  0.000   -0.000 -0.005 -0.004
 H         -0.009 -0.000 -0.005    0.000  0.000 -0.001   -0.000  0.000  0.000
 H         -0.002 -0.004  0.001    0.001  0.000  0.000    0.000 -0.004  0.004
 C         -0.001 -0.000  0.000   -0.000  0.000  0.000    0.004 -0.028 -0.022
 H         -0.002  0.008  0.007    0.001  0.001  0.000   -0.373  0.012  0.220
 H         -0.000 -0.002  0.004   -0.000 -0.000 -0.001    0.026  0.310 -0.224
 H         -0.004  0.002 -0.002    0.000 -0.001 -0.000    0.302 -0.002  0.254
 N          0.012  0.000 -0.006    0.347  0.000 -0.185   -0.000  0.000  0.000
 C         -0.012 -0.000  0.006   -0.345 -0.000  0.183    0.000 -0.000 -0.000
 H         -0.038 -0.000  0.020   -0.720 -0.000  0.384   -0.000  0.000  0.000
 TransDip  -0.552 -0.000  0.312   -0.091 -0.000  0.049   -0.000 -0.072  0.000

 Mode:                37                     38                     39
 Frequency:      3020.67                3022.23                3099.58
 Force Cnst:      5.5691                 5.5744                 6.2330
 Red. Mass:       1.0359                 1.0358                 1.1011
 IR Active:          YES                    YES                    YES
 IR Intens:        3.599                  3.878                  0.666
 Raman Active:       YES                    YES                    YES
               X      Y      Z        X      Y      Z        X      Y      Z
 H         -0.000  0.000  0.001   -0.001 -0.000 -0.001    0.000  0.002 -0.000
 Si        -0.000 -0.000 -0.001    0.001  0.000  0.001    0.000  0.000  0.000
 C         -0.004 -0.028  0.021   -0.000 -0.003  0.002   -0.062  0.014  0.014
 H         -0.296 -0.003 -0.250   -0.033  0.001 -0.029    0.276 -0.003  0.252
 H         -0.026  0.316  0.226   -0.002  0.029  0.020    0.003 -0.196 -0.132
 H          0.369  0.012 -0.218    0.035  0.001 -0.020    0.464  0.029 -0.286
 C          0.004 -0.000  0.003   -0.039  0.000 -0.032    0.000 -0.006 -0.000
 H          0.004 -0.044 -0.030   -0.037  0.458  0.323   -0.003  0.039  0.029
 H         -0.054 -0.000  0.029    0.527  0.000 -0.282   -0.000 -0.002  0.000
 H          0.004  0.044 -0.030   -0.037 -0.458  0.323    0.003  0.039 -0.029
 C         -0.004  0.029  0.021   -0.000  0.003  0.002    0.062  0.014 -0.013
 H          0.375 -0.012 -0.222    0.035 -0.001 -0.020   -0.464  0.029  0.286
 H         -0.026 -0.322  0.230   -0.002 -0.029  0.021   -0.002 -0.193  0.130
 H         -0.302  0.003 -0.254   -0.033 -0.001 -0.029   -0.277 -0.003 -0.254
 N         -0.000 -0.000  0.000   -0.000 -0.000  0.000   -0.000  0.000 -0.000
 C          0.000  0.000 -0.000    0.000  0.000 -0.000    0.000 -0.000 -0.000
 H         -0.001 -0.000  0.000   -0.001 -0.000  0.001   -0.000  0.000 -0.000
 TransDip  -0.009  0.001  0.060   -0.054  0.000 -0.033    0.000  0.026  0.000

 Mode:                40                     41                     42
 Frequency:      3100.47                3102.75                3105.42
 Force Cnst:      6.2351                 6.2440                 6.2566
 Red. Mass:       1.1009                 1.1008                 1.1012
 IR Active:          YES                    YES                    YES
 IR Intens:        9.814                 14.740                  1.940
 Raman Active:       YES                    YES                    YES
               X      Y      Z        X      Y      Z        X      Y      Z
 H          0.005 -0.000 -0.004    0.007  0.000 -0.003    0.000  0.000 -0.000
 Si        -0.001  0.000  0.000   -0.001 -0.000  0.000   -0.000 -0.000 -0.000
 C         -0.056  0.018  0.020   -0.022  0.000 -0.002   -0.020 -0.034 -0.049
 H          0.210 -0.001  0.197    0.130 -0.003  0.115    0.335 -0.013  0.284
 H          0.009 -0.248 -0.167   -0.004 -0.005 -0.004   -0.038  0.430  0.287
 H          0.449  0.030 -0.275    0.140  0.009 -0.089   -0.056 -0.010  0.022
 C          0.018  0.000 -0.021   -0.057 -0.000  0.065   -0.000  0.024  0.000
 H         -0.002  0.107  0.073    0.007 -0.325 -0.223    0.009 -0.150 -0.112
 H         -0.211 -0.000  0.106    0.670  0.000 -0.331    0.001  0.005 -0.000
 H         -0.002 -0.107  0.073    0.007  0.330 -0.227   -0.009 -0.149  0.111
 C         -0.056 -0.018  0.020   -0.022  0.000 -0.002    0.019 -0.034  0.049
 H          0.450 -0.030 -0.275    0.140 -0.009 -0.089    0.059 -0.010 -0.023
 H          0.008  0.246 -0.165   -0.004  0.004 -0.002    0.038  0.427 -0.285
 H          0.213  0.001  0.199    0.131  0.003  0.117   -0.330 -0.013 -0.280
 N          0.000 -0.000 -0.000    0.000  0.000 -0.000    0.000  0.000 -0.000
 C         -0.000  0.000  0.000   -0.000 -0.000  0.000   -0.000 -0.000  0.000
 H         -0.000 -0.000 -0.000    0.000  0.000  0.000    0.000 -0.000 -0.000
 TransDip  -0.099  0.000  0.018   -0.104 -0.000  0.065   -0.001 -0.045 -0.000

 Mode:                43                     44                     45
 Frequency:      3105.76                3106.52                3383.20
 Force Cnst:      6.2575                 6.2610                 8.1598
 Red. Mass:       1.1011                 1.1012                 1.2100
 IR Active:          YES                    YES                    YES
 IR Intens:       14.007                 12.234                298.404
 Raman Active:       YES                    YES                    YES
               X      Y      Z        X      Y      Z        X      Y      Z
 H          0.000 -0.000 -0.002   -0.000  0.001  0.000    0.012  0.000 -0.007
 Si         0.000 -0.000  0.001    0.000 -0.001 -0.000   -0.001 -0.000  0.000
 C          0.025  0.033  0.049   -0.001 -0.010 -0.014    0.000 -0.000 -0.000
 H         -0.362  0.015 -0.309    0.069 -0.003  0.058   -0.001 -0.000 -0.000
 H          0.038 -0.415 -0.276   -0.011  0.136  0.090   -0.000  0.000  0.001
 H          0.025  0.008 -0.002   -0.046 -0.005  0.025    0.000  0.001 -0.001
 C         -0.010  0.000  0.012    0.000 -0.089 -0.000    0.000  0.000 -0.000
 H          0.001 -0.062 -0.043   -0.031  0.542  0.407   -0.000  0.001  0.000
 H          0.112  0.000 -0.056   -0.003 -0.018  0.001    0.001  0.000  0.001
 H          0.001  0.062 -0.043    0.031  0.539 -0.405   -0.000 -0.001  0.000
 C          0.025 -0.033  0.049    0.001 -0.010  0.014    0.000  0.000 -0.000
 H          0.028 -0.008 -0.004    0.046 -0.005 -0.025    0.000 -0.001 -0.001
 H          0.038  0.421 -0.280    0.011  0.135 -0.089   -0.000 -0.000  0.001
 H         -0.365 -0.015 -0.311   -0.068 -0.003 -0.057   -0.001  0.000 -0.000
 N          0.000 -0.000 -0.000   -0.000  0.000  0.000    0.034  0.000 -0.018
 C          0.000 -0.000  0.000    0.000 -0.000 -0.000   -0.114 -0.000  0.061
 H          0.000 -0.000  0.000   -0.000 -0.000 -0.000    0.874  0.000 -0.466
 TransDip   0.041 -0.000  0.113    0.000 -0.112 -0.000    0.486  0.000 -0.265

 STANDARD THERMODYNAMIC QUANTITIES AT   298.15 K  AND     1.00 ATM

   This Molecule has  0 Imaginary Frequencies
   Zero point vibrational energy:       84.752 kcal/mol

   Atom    1 Element H  Has Mass    1.00783
   Atom    2 Element Si Has Mass   27.97693
   Atom    3 Element C  Has Mass   12.00000
   Atom    4 Element H  Has Mass    1.00783
   Atom    5 Element H  Has Mass    1.00783
   Atom    6 Element H  Has Mass    1.00783
   Atom    7 Element C  Has Mass   12.00000
   Atom    8 Element H  Has Mass    1.00783
   Atom    9 Element H  Has Mass    1.00783
   Atom   10 Element H  Has Mass    1.00783
   Atom   11 Element C  Has Mass   12.00000
   Atom   12 Element H  Has Mass    1.00783
   Atom   13 Element H  Has Mass    1.00783
   Atom   14 Element H  Has Mass    1.00783
   Atom   15 Element N  Has Mass   14.00307
   Atom   16 Element C  Has Mass   12.00000
   Atom   17 Element H  Has Mass    1.00783
   Molecular Mass:   101.066130 amu
   Principal axes and moments of inertia in amu*Bohr^2:
                             1           2           3
    Eigenvalues --      587.26523  2511.98625  2512.10144
          X              -0.87738     0.47924    -0.02307
          Y              -0.00013    -0.04833    -0.99883
          Z               0.47980     0.87635    -0.04247
   Rotational Symmetry Number is   1
   The Molecule is an Asymmetric Top
   Translational Enthalpy:        0.889 kcal/mol
   Rotational Enthalpy:           0.889 kcal/mol
   Vibrational Enthalpy:         90.295 kcal/mol
   gas constant (RT):             0.592 kcal/mol
   Translational Entropy:        39.750  cal/mol.K
   Rotational Entropy:           29.695  cal/mol.K
   Vibrational Entropy:          41.376  cal/mol.K

   Total Enthalpy:               92.665 kcal/mol
   Total Entropy:               110.821  cal/mol.K

   Quasi-RRHO corrections using alpha = 4, and omega = 100 cm^-1
   QRRHO-Vib. Enthalpy:          89.060 kcal/mol
   QRRHO-Vib. Entropy:           35.737  cal/mol.K
   QRRHO-Total Enthalpy:         91.430 kcal/mol
   QRRHO-Total Entropy:         105.181  cal/mol.K
 Total job time:  1311.24s(wall), 20798.77s(cpu) 
 Thu Nov 14 04:19:12 2024

        *************************************************************
        *                                                           *
        *  Thank you very much for using Q-Chem.  Have a nice day.  *
        *                                                           *
        *************************************************************


