
Running Job 1 of 2 Me3SiH_ICN_optfreq_B3LYP_svpd.in
qchem Me3SiH_ICN_optfreq_B3LYP_svpd.in_3568764.0 /data/scratch/Me3SiH_ICN_optfreq_B3LYP_svpd20241114031712/ 1
/opt/qchem/6.2.0/exe/qcprog.exe_s Me3SiH_ICN_optfreq_B3LYP_svpd.in_3568764.0 /data/scratch/Me3SiH_ICN_optfreq_B3LYP_svpd20241114031712/
                  Welcome to Q-Chem
     A Quantum Leap Into The Future Of Chemistry


 Q-Chem 6.2, Q-Chem, Inc., Pleasanton, CA (2024)

 E. Epifanovsky,  A. T. B. Gilbert,  Xintian Feng,  Joonho Lee,  Yuezhi Mao,  
 N. Mardirossian,  P. Pokhilko,  A. White,  M. Wormit,  M. P. Coons,  
 A. L. Dempwolff,  Zhengting Gan,  D. Hait,  P. R. Horn,  L. D. Jacobson,  
 I. Kaliman,  J. Kussmann,  A. W. Lange,  Ka Un Lao,  D. S. Levine,  Jie Liu,  
 S. C. McKenzie,  A. F. Morrison,  K. D. Nanda,  F. Plasser,  D. R. Rehn,  
 M. L. Vidal,  Zhi-Qiang You,  Ying Zhu,  Huseyin Aksu,  B. Alam,  
 B. Albrecht,  A. Aldossary,  E. Alguire,  J. H. Andersen,  
 J. E. Arias-Martinez,  V. Athavale,  D. Barton,  K. Begam,  A. Behn,  
 N. Bellonzi,  Y. A. Bernard,  E. J. Berquist,  H. Burton,  A. Carreras,  
 K. Carter-Fenk,  Mathew Chow,  Romit Chakraborty,  Chandrima Chakravarty,  
 Junhan Chen,  A. D. Chien,  K. D. Closser,  V. Cofer-Shabica,  L. Cunha,  
 S. Dasgupta,  Jia Deng,  Joseph Dickinson,  M. de Wergifosse,  
 M. Diedenhofen,  Hainam Do,  Wenjie Dou,  S. Ehlert,  Po-Tung Fang,  
 S. Fatehi,  Qingguo Feng,  Jonathan Fetherolf,  T. Friedhoff,  
 Thomas Froitzheim,  Sarai Folkestad,  B. Ganoe,  J. Gayvert,  Qinghui Ge,  
 G. Gidofalvi,  M. Gimferrer,  M. Goldey,  Montgomery Gray,  J. Gomes,  
 C. Gonzalez-Espinoza,  S. Gulania,  A. Gunina,  J. A. Gyamfi,  
 M. W. D. Hanson-Heine,  P. H. P. Harbach,  A. W. Hauser,  M. F. Herbst,  
 M. Hernandez Vera,  M. Hodecker,  Z. C. Holden,  S. Houck,  Xunkun Huang,  
 Kerwin Hui,  B. C. Huynh,  K. Ikeda,  M. Ivanov,  Nayanthara K. Jayadev,  
 Hyunjun Ji,  Zuxin Jin,  Hanjie Jiang,  Subrata Jana,  B. Kaduk,  
 S. Kaehler,  R. Kang,  K. Khistyaev,  Jaehoon Kim,  Yongbin Kim,  
 P. Klunzinger,  Z. Koczor-Benda,  Joong Hoon Koh,  D. Kosenkov,  
 Saikiran Kotaru,  L. Koulias,  T. Kowalczyk,  C. M. Krauter,  K. Kue,  
 A. Kunitsa,  T. Kus,  A. Landau,  K. V. Lawler,  D. Lefrancois,  S. Lehtola,  
 Rain Li,  Shaozhi Li,  Tao E. Li,  Yi-Pei Li,  Jiashu Liang,  M. Liebenthal,  
 Hung-Hsuan Lin,  You-Sheng Lin,  Fenglai Liu,  Kuan-Yu Liu,  Xiao Liu,  
 M. Loipersberger,  A. Luenser,  C. Malbon,  Aniket Mandal,  Manisha,  
 A. Manjanath,  P. Manohar,  E. Mansoor,  S. F. Manzer,  Shan-Ping Mao,  
 A. V. Marenich,  T. Markovich,  S. Mason,  F. Matz,  S. A. Maurer,  
 Samuel May,  Alexandra McIsaac,  P. F. McLaughlin,  M. F. S. J. Menger,  
 J.-M. Mewes,  S. A. Mewes,  P. Morgante,  Mohammad Mostafanejad,  
 Madhubani Mukherjee,  J. W. Mullinax,  Quyen Nguyen,  Avik Kumar Ojha,  
 K. J. Oosterbaan,  Eno Paenurk,  Xiaoliang Pan,  G. Paran,  V. Parravicini,  
 Alexander C. Paul,  Suranjan K. Paul,  F. Pavosevic,  Zheng Pei,  S. Prager,  
 E. I. Proynov,  E. Ramos,  B. Rana,  A. E. Rask,  A. Rettig,  R. M. Richard,  
 F. Rob,  E. Rossomme,  T. Scheele,  M. Scheurer,  M. Schneider,  
 P. E. Schneider,  Tim K. Schramm,  N. Sergueev,  S. M. Sharada,  
 Hengyuan Shen,  W. Skomorowski,  D. W. Small,  C. J. Stein,  
 Alistair J. Sterling,  Yingli Su,  Yu-Chuan Su,  E. J. Sundstrom,  
 J. Talbot,  Zhen Tao,  J. Thirman,  Hung-Yi Tsai,  T. Tsuchimochi,  
 N. M. Tubman,  C. Utku,  S. P. Veccham,  O. Vydrov,  Rahel Weiss,  
 J. Wenzel,  Jonathan Wong,  J. Witte,  H. Wu,  Yanze Wu,  A. Yamada,  
 Chou-Hsun Yang,  Kun Yao,  S. Yeganeh,  S. R. Yost,  Qi Yu,  A. Zech,  
 F. Zeller,  Chongxiao Zhao,  Igor Ying Zhang,  Xing Zhang,  Yu Zhang,  
 D. Zuev,  A. Aspuru-Guzik,  A. T. Bell,  N. A. Besley,  K. B. Bravaya,  
 B. R. Brooks,  D. Casanova,  Jeng-Da Chai,  Hsing-Ta Chen,  S. Coriani,  
 C. J. Cramer,  A. E. DePrince, III,  R. A. DiStasio Jr.,  A. Dreuw,  
 B. D. Dunietz,  T. R. Furlani,  W. A. Goddard III,  S. Grimme,  
 S. Hammes-Schiffer,  T. Head-Gordon,  W. J. Hehre,  Chao-Ping Hsu,  
 T.-C. Jagau,  Yousung Jung,  A. Klamt,  Jing Kong,  D. S. Lambrecht,  
 Xiangyuan Li,  WanZhen Liang,  N. J. Mayhall,  C. W. McCurdy,  J. B. Neaton,  
 T. Neudecker,  C. Ochsenfeld,  J. A. Parkhill,  R. Peverati,  
 V. A. Rassolov,  Haisheng Ren,  Yihan Shao,  L. V. Slipchenko,  
 R. P. Steele,  J. E. Subotnik,  A. J. W. Thom,  A. Tkatchenko,  
 D. G. Truhlar,  T. Van Voorhis,  Fan Wang,  T. A. Wesolowski,  K. B. Whaley,  
 H. L. Woodcock III,  P. M. Zimmerman,  S. Faraji,  P. M. W. Gill,  
 M. Head-Gordon,  J. M. Herbert,  A. I. Krylov

 Contributors to earlier versions of Q-Chem not listed above: 
 R. D. Adamson,  B. Austin,  R. Baer,  J. Baker,  G. J. O. Beran,  
 K. Brandhorst,  S. T. Brown,  E. F. C. Byrd,  Arup K. Chakraborty,  
 G. K. L. Chan,  Chun-Min Chang,  Yunqing Chen,  C.-L. Cheng,  
 Siu Hung Chien,  D. M. Chipman,  D. L. Crittenden,  H. Dachsel,  
 R. J. Doerksen,  A. D. Dutoi,  R. G. Edgar,  J. Fosso-Tande,  
 L. Fusti-Molnar,  D. Ghosh,  A. Ghysels,  A. Golubeva-Zadorozhnaya,  
 J. Gonthier,  M. S. Gordon,  S. R. Gwaltney,  G. Hawkins,  J. E. Herr,  
 A. Heyden,  S. Hirata,  E. G. Hohenstein,  G. Kedziora,  F. J. Keil,  
 C. Kelley,  Jihan Kim,  R. A. King,  R. Z. Khaliullin,  P. P. Korambath,  
 W. Kurlancheek,  A. Laurent,  A. M. Lee,  M. S. Lee,  S. V. Levchenko,  
 Ching Yeh Lin,  D. Liotard,  E. Livshits,  R. C. Lochan,  I. Lotan,  
 L. A. Martinez-Martinez,  P. E. Maslen,  N. Nair,  D. P. O'Neill,  
 D. Neuhauser,  E. Neuscamman,  C. M. Oana,  R. Olivares-Amaya,  R. Olson,  
 T. M. Perrine,  B. Peters,  P. A. Pieniazek,  A. Prociuk,  Y. M. Rhee,  
 J. Ritchie,  M. A. Rohrdanz,  E. Rosta,  N. J. Russ,  H. F. Schaefer III,  
 M. W. Schmidt,  N. E. Schultz,  S. Sharma,  N. Shenvi,  C. D. Sherrill,  
 A. C. Simmonett,  A. Sodt,  T. Stein,  D. Stuck,  K. S. Thanthiriwatte,  
 V. Vanovschi,  L. Vogt,  Tao Wang,  A. Warshel,  M. A. Watson,  
 C. F. Williams,  Q. Wu,  X. Xu,  Jun Yang,  W. Zhang,  Yan Zhao

   Please cite Q-Chem as follows:
  "Software for the frontiers of quantum chemistry:
   An overview of developments in the Q-Chem 5 package"
   J. Chem. Phys. 155, 084801 (2021)
   https://doi.org/10.1063/5.0055522 (open access)

 Q-Chem 6.2.0 for Intel X86 EM64T Linux

 Parts of Q-Chem use Armadillo 9.900.5 (Nocturnal Misbehaviour).
 http://arma.sourceforge.net/

 Q-Chem begins on Thu Nov 14 03:17:13 2024  

 Host: 
0

     Scratch files written to /data/scratch/Me3SiH_ICN_optfreq_B3LYP_svpd20241114031712//
 May224 |scratch|qcdevops|jenkins|workspace|build_RNUM -1
 Processing $rem in /opt/qchem/6.2.0/config/preferences:
 Processing $rem in /home/ymao/.qchemrc:

 Checking the input file for inconsistencies... 	...done.
 Reading auxiliary files from /opt/qchem/6.2.0/qcaux (QCAUX)

--------------------------------------------------------------
User input:
--------------------------------------------------------------
$molecule
0 1
H    -1.35530   -0.00009   0.96646
Si   -2.53568   -0.00003   0.02213
C    -2.42322   -1.55027   -1.03852
H    -1.50030   -1.55984   -1.64054
H    -2.43158   -2.46207   -0.42004
H    -3.27588   -1.60939   -1.73483
C    -4.09460   -0.00017   1.07385
H    -4.14057   -0.89063   1.72067
H    -4.99405   -0.00012   0.43638
H    -4.14060   0.89015    1.72086
C    -2.42329   1.55043    -1.03821
H    -3.27596   1.60964    -1.73451
H    -1.50038   1.56016    -1.64023
H    -2.43171   2.46210    -0.41956
I    1.25298    0.00001    0.26011
C    3.19904    0.00005    -0.26107
N    4.31717    0.00017    -0.56149
$end

$rem
JOBTYPE  OPT
METHOD  B3LYP
BASIS  DEF2-SVPD
SYMMETRY  FALSE
SYM_IGNORE  TRUE
MEM_TOTAL  8000
MEM_STATIC  2000
BASIS_LIN_DEP_THRESH  6
THRESH  14
SCF_CONVERGENCE  8
FD_MAT_VEC_PROD  FALSE
XC_GRID  000099000590
NL_GRID  1
MAX_SCF_CYCLES  200
GEOM_OPT_MAX_CYCLES  200
GEOM_OPT_DRIVER  OPTIMIZE
$end

--------------------------------------------------------------
 ----------------------------------------------------------------
             Standard Nuclear Orientation (Angstroms)
    I     Atom           X                Y                Z
 ----------------------------------------------------------------
    1      H      -1.3553000000    -0.0000900000     0.9664600000
    2      Si     -2.5356800000    -0.0000300000     0.0221300000
    3      C      -2.4232200000    -1.5502700000    -1.0385200000
    4      H      -1.5003000000    -1.5598400000    -1.6405400000
    5      H      -2.4315800000    -2.4620700000    -0.4200400000
    6      H      -3.2758800000    -1.6093900000    -1.7348300000
    7      C      -4.0946000000    -0.0001700000     1.0738500000
    8      H      -4.1405700000    -0.8906300000     1.7206700000
    9      H      -4.9940500000    -0.0001200000     0.4363800000
   10      H      -4.1406000000     0.8901500000     1.7208600000
   11      C      -2.4232900000     1.5504300000    -1.0382100000
   12      H      -3.2759600000     1.6096400000    -1.7345100000
   13      H      -1.5003800000     1.5601600000    -1.6402300000
   14      H      -2.4317100000     2.4621000000    -0.4195600000
   15      I       1.2529800000     0.0000100000     0.2601100000
   16      C       3.1990400000     0.0000500000    -0.2610700000
   17      N       4.3171700000     0.0001700000    -0.5614900000
 ----------------------------------------------------------------
 Nuclear Repulsion Energy =         436.60698116 hartrees
 There are       40 alpha and       40 beta electrons
 Requested basis set is def2-SVPD
 There are 103 shells and 239 basis functions

 Total QAlloc Memory Limit   8000 MB
 Mega-Array Size      1956 MB
 MEM_STATIC part      2000 MB

 A cutoff of  1.0D-14 yielded   4907 shell pairs
 There are     26479 function pairs (     29928 Cartesian)
 Requested basis set is def2-SVPD
 Compound shells will be simplified
 There are 103 shells and 239 basis functions
 A cutoff of  1.0D-14 yielded   4907 shell pairs
 There are     26479 function pairs (     29928 Cartesian)
 Smallest overlap matrix eigenvalue = 1.50E-04

 Scale SEOQF with 1.000000e-01/1.000000e-01/1.000000e-01

 Standard Electronic Orientation quadrupole field applied
 Nucleus-field energy     =     0.0000000203 hartrees
 Guess from superposition of atomic densities
 Warning:  Energy on first SCF cycle will be non-variational
 SAD guess density has 80.000000 electrons

 -----------------------------------------------------------------------
  General SCF calculation program by
  Eric Jon Sundstrom, Paul Horn, Yuezhi Mao, Dmitri Zuev, Alec White,
  David Stuck, Shaama M.S., Shane Yost, Joonho Lee, David Small,
  Daniel Levine, Susi Lehtola, Hugh Burton, Evgeny Epifanovsky,
  Bang C. Huynh
 -----------------------------------------------------------------------
 Exchange:     0.2000 Hartree-Fock + 0.0800 Slater + 0.7200 B88
 Correlation:  0.1900 VWN1RPA + 0.8100 LYP
 Using Euler-Maclaurin-Lebedev (99,590) quadrature formula
 using 16 threads for integral computing
 -------------------------------------------------------
 OpenMP Integral computing Module                
 Release: version 1.0, May 2013, Q-Chem Inc. Pittsburgh 
 -------------------------------------------------------
 A restricted SCF calculation will be
 performed using DIIS
 SCF converges when DIIS error is below 1.0e-08
 ---------------------------------------
  Cycle       Energy         DIIS error
 ---------------------------------------
    1    -800.9006611837      3.31e-02  
    2    -799.9772862379      6.14e-03  
    3    -799.5270840593      9.76e-03  
    4    -800.1840953012      3.42e-03  
    5    -800.2604306294      3.24e-04  
    6    -800.2607361606      2.45e-04  
    7    -800.2613174768      5.06e-05  
    8    -800.2613367262      1.37e-05  
    9    -800.2613381286      2.32e-06  
   10    -800.2613381660      5.78e-07  
   11    -800.2613381683      1.31e-07  
   12    -800.2613381685      5.09e-08  
   13    -800.2613381685      9.74e-09  Convergence criterion met
 ---------------------------------------
 SCF time:   CPU 615.23s  wall 39.00s 
 SCF   energy =  -800.26133817
 Total energy =  -800.26133817
 
 --------------------------------------------------------------
 
                    Orbital Energies (a.u.)
 --------------------------------------------------------------
 
 Alpha MOs
 -- Occupied --
-66.1289 -14.3440 -10.2545 -10.1850 -10.1839 -10.1839  -6.9013  -5.2912
 -4.9312  -4.9119  -4.9118  -3.6540  -3.6527  -3.6527  -1.9788  -1.9723
 -1.9722  -1.9560  -1.9560  -0.9106  -0.7697  -0.7264  -0.6898  -0.6892
 -0.5138  -0.4893  -0.4363  -0.4260  -0.4260  -0.4093  -0.4090  -0.3993
 -0.3811  -0.3810  -0.3755  -0.3339  -0.3263  -0.3257  -0.2993  -0.2989
 -- Virtual --
 -0.0673  -0.0058  -0.0039  -0.0033   0.0119   0.0227   0.0262   0.0442
  0.0468   0.0536   0.0645   0.0719   0.0729   0.0796   0.0811   0.0852
  0.0910   0.0998   0.1038   0.1099   0.1122   0.1227   0.1287   0.1361
  0.1436   0.1478   0.1500   0.1699   0.1900   0.1946   0.1962   0.1965
  0.2111   0.2233   0.2294   0.2336   0.2414   0.2530   0.2632   0.2762
  0.2767   0.2856   0.2946   0.2994   0.3037   0.3048   0.3180   0.3210
  0.3252   0.3324   0.3324   0.3498   0.3511   0.3538   0.3587   0.3630
  0.3735   0.3749   0.3824   0.3831   0.3867   0.3891   0.4013   0.4085
  0.4135   0.4228   0.4333   0.4352   0.4402   0.4415   0.4516   0.4518
  0.4600   0.4604   0.4727   0.4882   0.5001   0.5080   0.5102   0.5145
  0.5181   0.5230   0.5328   0.5469   0.5476   0.5536   0.5615   0.5651
  0.5927   0.5985   0.6001   0.6092   0.6196   0.6318   0.6550   0.6703
  0.6864   0.6874   0.7210   0.7416   0.7600   0.7615   0.7756   0.7836
  0.8005   0.8101   0.8212   0.8460   0.8610   0.8746   0.8994   0.9166
  0.9259   0.9277   0.9484   0.9663   0.9683   0.9750   0.9794   0.9808
  1.0106   1.0426   1.0456   1.0521   1.0725   1.1258   1.1335   1.1564
  1.1590   1.1618   1.1879   1.2104   1.2252   1.2323   1.2475   1.2807
  1.2838   1.3256   1.3376   1.5412   1.5681   1.5843   1.6026   1.6347
  1.6554   1.6744   1.6886   1.6944   1.7036   1.7566   1.7584   1.7865
  1.7916   1.7953   1.8261   1.8953   1.8978   1.8985   1.9047   1.9312
  1.9397   1.9513   1.9706   2.0060   2.0157   2.0332   2.0744   2.0879
  2.1119   2.1203   2.2055   2.3251   2.3539   2.3539   2.4341   2.4352
  2.4850   2.4894   2.4905   2.5028   2.5066   2.5176   2.6140   2.7725
  2.7786   2.7812   2.8686   2.8698   3.0499   3.0539   3.0558   3.0855
  3.0927   3.1107   3.4534  18.8250  18.8899  19.7251  56.3378
 --------------------------------------------------------------
 
          Ground-State Mulliken Net Atomic Charges

     Atom                 Charge (a.u.)
  ----------------------------------------
      1 H                     0.141993
      2 Si                   -0.464803
      3 C                     0.475725
      4 H                    -0.159424
      5 H                    -0.131619
      6 H                    -0.124716
      7 C                     0.570200
      8 H                    -0.120500
      9 H                    -0.106752
     10 H                    -0.120497
     11 C                     0.475750
     12 H                    -0.124686
     13 H                    -0.159446
     14 H                    -0.131659
     15 I                     0.339780
     16 C                    -0.247631
     17 N                    -0.111715
  ----------------------------------------
  Sum of atomic charges =     0.000000

 -----------------------------------------------------------------
                    Cartesian Multipole Moments
 -----------------------------------------------------------------
    Charge (ESU x 10^10)
                -0.0000
    Dipole Moment (Debye)
         X      -5.4876      Y      -0.0002      Z       0.5568
       Tot       5.5157
    Quadrupole Moments (Debye-Ang)
        XX     -89.9711     XY      -0.0010     YY     -73.0211
        XZ       4.1421     YZ       0.0002     ZZ     -73.6083
    Octopole Moments (Debye-Ang^2)
       XXX     -56.8235    XXY      -0.0060    XYY      22.6551
       YYY      -0.0041    XXZ      17.5918    XYZ       0.0005
       YYZ       8.0785    XZZ      20.4642    YZZ      -0.0004
       ZZZ      13.6741
    Hexadecapole Moments (Debye-Ang^3)
      XXXX   -3656.7546   XXXY      -0.0518   XXYY    -578.7436
      XYYY      -0.0211   YYYY    -360.0480   XXXZ     138.7539
      XXYZ       0.0043   XYYZ      -2.4440   YYYZ      -0.0013
      XXZZ    -582.1359   XYZZ      -0.0104   YYZZ    -113.5832
      XZZZ      25.3594   YZZZ      -0.0014   ZZZZ    -314.6400
 -----------------------------------------------------------------
 Calculating analytic gradient of the SCF energy
 Gradient of SCF Energy
            1           2           3           4           5           6
    1  -0.0001021  -0.0004346  -0.0002192   0.0010426   0.0000102  -0.0006696
    2   0.0000002  -0.0000011   0.0019830   0.0002134  -0.0005701   0.0001412
    3   0.0005765  -0.0002498   0.0012839  -0.0005310   0.0006754  -0.0004952
            7           8           9          10          11          12
    1   0.0017292   0.0001562  -0.0006052   0.0001565  -0.0002109  -0.0006725
    2   0.0000006  -0.0007454  -0.0000002   0.0007452  -0.0019766  -0.0001407
    3  -0.0017515   0.0003849  -0.0005663   0.0003850   0.0012878  -0.0004972
           13          14          15          16          17
    1   0.0010388   0.0000091   0.0032946   0.0039501  -0.0084733
    2  -0.0002139   0.0005641   0.0000019  -0.0000033   0.0000015
    3  -0.0005292   0.0006713  -0.0017874  -0.0011270   0.0022698
 Max gradient component =       8.473E-03
 RMS gradient           =       1.619E-03
 Gradient time:  CPU 144.03 s  wall 9.12 s
 Geometry Optimization Parameters
   NAtoms,    NIC,     NZ,  NCons,   NDum,   NFix, NCnnct, MaxDiis
       17     109       0       0       0       0       0       0


** GEOMETRY OPTIMIZATION IN DELOCALIZED INTERNAL COORDINATES **
   Searching for a Minimum

   Optimization Cycle:   1

                       Coordinates (Angstroms)
     ATOM                X               Y               Z
      1  H        -1.3553000000   -0.0000900000    0.9664600000
      2  Si       -2.5356800000   -0.0000300000    0.0221300000
      3  C        -2.4232200000   -1.5502700000   -1.0385200000
      4  H        -1.5003000000   -1.5598400000   -1.6405400000
      5  H        -2.4315800000   -2.4620700000   -0.4200400000
      6  H        -3.2758800000   -1.6093900000   -1.7348300000
      7  C        -4.0946000000   -0.0001700000    1.0738500000
      8  H        -4.1405700000   -0.8906300000    1.7206700000
      9  H        -4.9940500000   -0.0001200000    0.4363800000
     10  H        -4.1406000000    0.8901500000    1.7208600000
     11  C        -2.4232900000    1.5504300000   -1.0382100000
     12  H        -3.2759600000    1.6096400000   -1.7345100000
     13  H        -1.5003800000    1.5601600000   -1.6402300000
     14  H        -2.4317100000    2.4621000000   -0.4195600000
     15  I         1.2529800000    0.0000100000    0.2601100000
     16  C         3.1990400000    0.0000500000   -0.2610700000
     17  N         4.3171700000    0.0001700000   -0.5614900000
   Point Group: c1    Number of degrees of freedom:    45


   Energy is   -800.261338168


 Attempting to generate delocalized internal coordinates
 Initial Hessian constructed with Jon Baker's OPTIMIZE code

 45 Hessian modes will be used to form the next step
  Hessian Eigenvalues:
     0.002000    0.003490    0.003490    0.003649    0.019724    0.034532
     0.045174    0.045244    0.054350    0.054350    0.054702    0.055210
     0.055211    0.055447    0.145319    0.146038    0.146864    0.160000
     0.160000    0.160000    0.160000    0.160000    0.160000    0.160000
     0.160000    0.160000    0.160000    0.163608    0.200000    0.200000
     0.200000    0.200000    0.206080    0.206081    0.206773    0.334131
     0.334135    0.334138    0.334670    0.334678    0.334837    0.334850
     0.335115    0.335115    1.292540

 Minimum search - taking simple RFO step
 Searching for Lamda that Minimizes Along All modes
 Value Taken    Lamda =  -0.00055079
 Step Taken.  Stepsize is  0.076623

                             Maximum     Tolerance    Cnvgd?
         Gradient           0.005760      0.000300      NO
         Displacement       0.039675      0.001200      NO
         Energy change     *********      0.000001      NO


 New Cartesian Coordinates Obtained by Inverse Iteration

 Displacement from previous Coordinates is:  0.403577
 ----------------------------------------------------------------
             Standard Nuclear Orientation (Angstroms)
    I     Atom           X                Y                Z
 ----------------------------------------------------------------
    1      H      -1.3464059735    -0.0000897473     0.9343360118
    2      Si     -2.5408941845    -0.0000285914     0.0022393639
    3      C      -2.4542725152    -1.5565443713    -1.0606149820
    4      H      -1.5472881904    -1.5704606919    -1.6830692195
    5      H      -2.4505737862    -2.4669596578    -0.4424397076
    6      H      -3.3213567199    -1.6165029614    -1.7366874733
    7      C      -4.0791193999    -0.0001775155     1.0931019867
    8      H      -4.1115550525    -0.8891252363     1.7406164060
    9      H      -4.9922929076    -0.0001319828     0.4777721300
   10      H      -4.1115922903     0.8886310014     1.7408054477
   11      C      -2.4543534496     1.5567058415    -1.0603030779
   12      H      -3.3214417553     1.6167466917    -1.7363641852
   13      H      -1.5473716049     1.5707932745    -1.6827565198
   14      H      -2.4507116040     2.4669992507    -0.4419486124
   15      I       1.3009238844     0.0000288480     0.2725695834
   16      C       3.2737603683     0.0002383658    -0.2123723530
   17      N       4.4006151811    -0.0000225179    -0.4934247989
 ----------------------------------------------------------------
 Nuclear Repulsion Energy =         433.14215839 hartrees
 There are       40 alpha and       40 beta electrons
 Applying Cartesian multipole field
    Component          Value
    ---------          -----
     (2,0,0)        1.00000E-11
     (0,2,0)        2.00000E-11
     (0,0,2)       -3.00000E-11
 Nucleus-field energy     =     0.0000000207 hartrees
 Requested basis set is def2-SVPD
 There are 103 shells and 239 basis functions
 A cutoff of  1.0D-14 yielded   4903 shell pairs
 There are     26459 function pairs (     29908 Cartesian)
 Requested basis set is def2-SVPD
 Compound shells will be simplified
 There are 103 shells and 239 basis functions
 A cutoff of  1.0D-14 yielded   4903 shell pairs
 There are     26459 function pairs (     29908 Cartesian)
 Smallest overlap matrix eigenvalue = 1.51E-04
 Guess MOs from SCF MO coefficient file

 -----------------------------------------------------------------------
  General SCF calculation program by
  Eric Jon Sundstrom, Paul Horn, Yuezhi Mao, Dmitri Zuev, Alec White,
  David Stuck, Shaama M.S., Shane Yost, Joonho Lee, David Small,
  Daniel Levine, Susi Lehtola, Hugh Burton, Evgeny Epifanovsky,
  Bang C. Huynh
 -----------------------------------------------------------------------
 Exchange:     0.2000 Hartree-Fock + 0.0800 Slater + 0.7200 B88
 Correlation:  0.1900 VWN1RPA + 0.8100 LYP
 Using Euler-Maclaurin-Lebedev (99,590) quadrature formula
 A restricted SCF calculation will be
 performed using DIIS
 SCF converges when DIIS error is below 1.0e-08
 ---------------------------------------
  Cycle       Energy         DIIS error
 ---------------------------------------
    1    -800.2603942262      5.55e-04  
    2    -800.2616003141      7.17e-05  
    3    -800.2615103371      1.41e-04  
    4    -800.2616381729      3.14e-05  
    5    -800.2616445286      8.07e-06  
    6    -800.2616450702      2.53e-06  
    7    -800.2616451371      3.25e-07  
    8    -800.2616451380      6.59e-08  
    9    -800.2616451380      3.70e-08  
   10    -800.2616451380      6.83e-09  Convergence criterion met
 ---------------------------------------
 SCF time:   CPU 472.66s  wall 29.00s 
 SCF   energy =  -800.26164514
 Total energy =  -800.26164514
 
 --------------------------------------------------------------
 
                    Orbital Energies (a.u.)
 --------------------------------------------------------------
 
 Alpha MOs
 -- Occupied --
-66.1301 -14.3453 -10.2562 -10.1844 -10.1842 -10.1842  -6.9018  -5.2921
 -4.9317  -4.9122  -4.9121  -3.6549  -3.6536  -3.6536  -1.9792  -1.9727
 -1.9727  -1.9563  -1.9563  -0.9094  -0.7677  -0.7258  -0.6897  -0.6897
 -0.5124  -0.4897  -0.4360  -0.4258  -0.4256  -0.4091  -0.4091  -0.3995
 -0.3796  -0.3795  -0.3759  -0.3338  -0.3259  -0.3259  -0.2998  -0.2994
 -- Virtual --
 -0.0728  -0.0054  -0.0048  -0.0040   0.0118   0.0220   0.0253   0.0441
  0.0468   0.0534   0.0651   0.0718   0.0732   0.0796   0.0806   0.0840
  0.0905   0.0977   0.1039   0.1097   0.1116   0.1227   0.1266   0.1355
  0.1436   0.1451   0.1484   0.1702   0.1880   0.1929   0.1955   0.1959
  0.2108   0.2212   0.2293   0.2324   0.2410   0.2521   0.2639   0.2762
  0.2772   0.2851   0.2933   0.2997   0.3035   0.3036   0.3183   0.3192
  0.3240   0.3322   0.3327   0.3491   0.3507   0.3541   0.3589   0.3612
  0.3732   0.3736   0.3808   0.3835   0.3853   0.3900   0.4003   0.4080
  0.4136   0.4233   0.4331   0.4331   0.4393   0.4394   0.4509   0.4513
  0.4594   0.4599   0.4721   0.4863   0.4998   0.5073   0.5100   0.5125
  0.5175   0.5228   0.5339   0.5443   0.5445   0.5536   0.5587   0.5625
  0.5895   0.5958   0.5974   0.6046   0.6176   0.6295   0.6501   0.6694
  0.6826   0.6855   0.7171   0.7369   0.7540   0.7586   0.7705   0.7808
  0.8009   0.8094   0.8184   0.8459   0.8617   0.8735   0.8971   0.9151
  0.9276   0.9279   0.9468   0.9631   0.9661   0.9742   0.9771   0.9798
  1.0126   1.0388   1.0421   1.0524   1.0718   1.1190   1.1325   1.1555
  1.1578   1.1593   1.1869   1.2099   1.2237   1.2293   1.2428   1.2763
  1.2790   1.3256   1.3372   1.5397   1.5665   1.5847   1.6008   1.6361
  1.6546   1.6747   1.6874   1.6934   1.7031   1.7570   1.7587   1.7856
  1.7904   1.7955   1.8277   1.8945   1.8967   1.9007   1.9068   1.9330
  1.9404   1.9483   1.9716   2.0060   2.0168   2.0306   2.0717   2.0865
  2.1079   2.1178   2.2054   2.3264   2.3558   2.3564   2.4321   2.4332
  2.4867   2.4915   2.4923   2.5045   2.5077   2.5186   2.5981   2.7732
  2.7800   2.7824   2.8624   2.8634   3.0517   3.0563   3.0589   3.0879
  3.0953   3.1125   3.4471  18.8108  18.8600  19.6825  56.3273
 --------------------------------------------------------------
 
          Ground-State Mulliken Net Atomic Charges

     Atom                 Charge (a.u.)
  ----------------------------------------
      1 H                     0.146091
      2 Si                   -0.432512
      3 C                     0.475738
      4 H                    -0.162064
      5 H                    -0.137534
      6 H                    -0.129807
      7 C                     0.574985
      8 H                    -0.125253
      9 H                    -0.110159
     10 H                    -0.125253
     11 C                     0.475731
     12 H                    -0.129801
     13 H                    -0.162063
     14 H                    -0.137539
     15 I                     0.346248
     16 C                    -0.254346
     17 N                    -0.112462
  ----------------------------------------
  Sum of atomic charges =     0.000000

 -----------------------------------------------------------------
                    Cartesian Multipole Moments
 -----------------------------------------------------------------
    Charge (ESU x 10^10)
                -0.0000
    Dipole Moment (Debye)
         X      -5.5166      Y       0.0001      Z       0.4638
       Tot       5.5361
    Quadrupole Moments (Debye-Ang)
        XX     -90.6940     XY       0.0007     YY     -73.0340
        XZ       3.8916     YZ      -0.0001     ZZ     -73.5319
    Octopole Moments (Debye-Ang^2)
       XXX     -67.1923    XXY       0.0017    XYY      20.8081
       YYY      -0.0055    XXZ      15.3953    XYZ      -0.0005
       YYZ       7.4110    XZZ      19.2632    YZZ      -0.0008
       ZZZ      11.8673
    Hexadecapole Moments (Debye-Ang^3)
      XXXX   -3763.8097   XXXY      -0.0136   XXYY    -591.2738
      XYYY      -0.0186   YYYY    -361.6621   XXXZ     120.4562
      XXYZ      -0.0007   XYYZ      -6.6288   YYYZ      -0.0028
      XXZZ    -593.1419   XYZZ      -0.0089   YYZZ    -114.5633
      XZZZ      11.4845   YZZZ      -0.0031   ZZZZ    -318.6006
 -----------------------------------------------------------------
 Calculating analytic gradient of the SCF energy
 Gradient of SCF Energy
            1           2           3           4           5           6
    1   0.0000658   0.0001676  -0.0000176  -0.0000692   0.0000097   0.0000523
    2   0.0000003  -0.0000004   0.0000634   0.0000201  -0.0000718  -0.0000670
    3   0.0018677  -0.0010194   0.0000242   0.0000451  -0.0000868  -0.0000384
            7           8           9          10          11          12
    1   0.0003099  -0.0000649   0.0000821  -0.0000648  -0.0000164   0.0000521
    2   0.0000002   0.0000303  -0.0000001  -0.0000303  -0.0000626   0.0000670
    3  -0.0001622   0.0000226  -0.0000175   0.0000226   0.0000245  -0.0000385
           13          14          15          16          17
    1  -0.0000695   0.0000091  -0.0023367   0.0018792   0.0000114
    2  -0.0000204   0.0000717  -0.0000067   0.0000156  -0.0000093
    3   0.0000448  -0.0000868  -0.0001360  -0.0003769  -0.0000890
 Max gradient component =       2.337E-03
 RMS gradient           =       5.226E-04
 Gradient time:  CPU 146.36 s  wall 9.27 s
 Geometry Optimization Parameters
   NAtoms,    NIC,     NZ,  NCons,   NDum,   NFix, NCnnct, MaxDiis
       17     109       0       0       0       0       0       0

 Cartesian Hessian Update
 Hessian updated using BFGS update


** GEOMETRY OPTIMIZATION IN DELOCALIZED INTERNAL COORDINATES **
   Searching for a Minimum

   Optimization Cycle:   2

                       Coordinates (Angstroms)
     ATOM                X               Y               Z
      1  H        -1.3464059735   -0.0000897473    0.9343360118
      2  Si       -2.5408941845   -0.0000285914    0.0022393639
      3  C        -2.4542725152   -1.5565443713   -1.0606149820
      4  H        -1.5472881904   -1.5704606919   -1.6830692195
      5  H        -2.4505737862   -2.4669596578   -0.4424397076
      6  H        -3.3213567199   -1.6165029614   -1.7366874733
      7  C        -4.0791193999   -0.0001775155    1.0931019867
      8  H        -4.1115550525   -0.8891252363    1.7406164060
      9  H        -4.9922929076   -0.0001319828    0.4777721300
     10  H        -4.1115922903    0.8886310014    1.7408054477
     11  C        -2.4543534496    1.5567058415   -1.0603030779
     12  H        -3.3214417553    1.6167466917   -1.7363641852
     13  H        -1.5473716049    1.5707932745   -1.6827565198
     14  H        -2.4507116040    2.4669992507   -0.4419486124
     15  I         1.3009238844    0.0000288480    0.2725695834
     16  C         3.2737603683    0.0002383658   -0.2123723530
     17  N         4.4006151811   -0.0000225179   -0.4934247989
   Point Group: c1    Number of degrees of freedom:    45


   Energy is   -800.261645138

 Hessian updated using BFGS update

 35 Hessian modes will be used to form the next step
  Hessian Eigenvalues:
     0.002000    0.003490    0.003490    0.003649    0.018364    0.034521
     0.043932    0.045244    0.054340    0.054350    0.054710    0.055178
     0.055211    0.055447    0.105325    0.146038    0.146865    0.159127
     0.162469    0.185407    0.199856    0.200120    0.206080    0.206429
     0.231507    0.334128    0.334136    0.334292    0.334674    0.334768
     0.334844    0.335038    0.335115    0.341862    1.318855

 Minimum search - taking simple RFO step
 Searching for Lamda that Minimizes Along All modes
 Value Taken    Lamda =  -0.00016136
 Step Taken.  Stepsize is  0.048975

                             Maximum     Tolerance    Cnvgd?
         Gradient           0.003238      0.000300      NO
         Displacement       0.035105      0.001200      NO
         Energy change     -0.000307      0.000001      NO


 New Cartesian Coordinates Obtained by Inverse Iteration

 Displacement from previous Coordinates is:  0.340336
 ----------------------------------------------------------------
             Standard Nuclear Orientation (Angstroms)
    I     Atom           X                Y                Z
 ----------------------------------------------------------------
    1      H      -1.3339626129    -0.0000995190     0.8950848723
    2      Si     -2.5436186308    -0.0000259357    -0.0158786244
    3      C      -2.4800206403    -1.5585937907    -1.0794073114
    4      H      -1.5869574120    -1.5749114805    -1.7210166702
    5      H      -2.4643179743    -2.4675457988    -0.4599562030
    6      H      -3.3614732367    -1.6185512807    -1.7360827893
    7      C      -4.0599701348    -0.0001548022     1.1090373628
    8      H      -4.0779200012    -0.8887753830     1.7569903814
    9      H      -4.9866126934    -0.0001018799     0.5146456639
   10      H      -4.0779359726     0.8883330349     1.7571720204
   11      C      -2.4800609233     1.5587495229    -1.0791040337
   12      H      -3.3615126569     1.6188072205    -1.7357694070
   13      H      -1.5869949009     1.5752162384    -1.7207084149
   14      H      -2.4643843650     2.4675845732    -0.4594755784
   15      I       1.3405422580    -0.0000538305     0.2785851546
   16      C       3.3178829327    -0.0005361619    -0.1721616631
   17      N       4.4533869645     0.0007592732    -0.4204947602
 ----------------------------------------------------------------
 Nuclear Repulsion Energy =         431.26731956 hartrees
 There are       40 alpha and       40 beta electrons
 Applying Cartesian multipole field
    Component          Value
    ---------          -----
     (2,0,0)        1.00000E-11
     (0,2,0)        2.00000E-11
     (0,0,2)       -3.00000E-11
 Nucleus-field energy     =     0.0000000209 hartrees
 Requested basis set is def2-SVPD
 There are 103 shells and 239 basis functions
 A cutoff of  1.0D-14 yielded   4892 shell pairs
 There are     26362 function pairs (     29793 Cartesian)
 Requested basis set is def2-SVPD
 Compound shells will be simplified
 There are 103 shells and 239 basis functions
 A cutoff of  1.0D-14 yielded   4892 shell pairs
 There are     26362 function pairs (     29793 Cartesian)
 Smallest overlap matrix eigenvalue = 1.49E-04
 Guess MOs from SCF MO coefficient file

 -----------------------------------------------------------------------
  General SCF calculation program by
  Eric Jon Sundstrom, Paul Horn, Yuezhi Mao, Dmitri Zuev, Alec White,
  David Stuck, Shaama M.S., Shane Yost, Joonho Lee, David Small,
  Daniel Levine, Susi Lehtola, Hugh Burton, Evgeny Epifanovsky,
  Bang C. Huynh
 -----------------------------------------------------------------------
 Exchange:     0.2000 Hartree-Fock + 0.0800 Slater + 0.7200 B88
 Correlation:  0.1900 VWN1RPA + 0.8100 LYP
 Using Euler-Maclaurin-Lebedev (99,590) quadrature formula
 A restricted SCF calculation will be
 performed using DIIS
 SCF converges when DIIS error is below 1.0e-08
 ---------------------------------------
  Cycle       Energy         DIIS error
 ---------------------------------------
    1    -800.2602913462      5.79e-04  
    2    -800.2617502175      4.32e-05  
    3    -800.2617517055      5.31e-05  
    4    -800.2617667980      2.85e-05  
    5    -800.2617715672      7.12e-06  
    6    -800.2617719621      2.45e-06  
    7    -800.2617720190      3.21e-07  
    8    -800.2617720199      3.50e-08  
    9    -800.2617720199      1.63e-08  
   10    -800.2617720199      4.25e-09  Convergence criterion met
 ---------------------------------------
 SCF time:   CPU 465.48s  wall 29.00s 
 SCF   energy =  -800.26177202
 Total energy =  -800.26177202
 
 --------------------------------------------------------------
 
                    Orbital Energies (a.u.)
 --------------------------------------------------------------
 
 Alpha MOs
 -- Occupied --
-66.1301 -14.3457 -10.2567 -10.1841 -10.1841 -10.1840  -6.9019  -5.2919
 -4.9319  -4.9124  -4.9123  -3.6548  -3.6535  -3.6535  -1.9793  -1.9729
 -1.9728  -1.9565  -1.9565  -0.9093  -0.7682  -0.7255  -0.6897  -0.6894
 -0.5120  -0.4901  -0.4358  -0.4256  -0.4253  -0.4091  -0.4088  -0.3994
 -0.3798  -0.3797  -0.3760  -0.3336  -0.3258  -0.3254  -0.2998  -0.2994
 -- Virtual --
 -0.0725  -0.0054  -0.0050  -0.0044   0.0116   0.0218   0.0250   0.0441
  0.0469   0.0533   0.0657   0.0719   0.0733   0.0797   0.0804   0.0840
  0.0900   0.0966   0.1039   0.1096   0.1113   0.1229   0.1254   0.1352
  0.1435   0.1438   0.1474   0.1699   0.1874   0.1923   0.1952   0.1959
  0.2107   0.2195   0.2292   0.2322   0.2409   0.2511   0.2645   0.2762
  0.2769   0.2845   0.2928   0.3005   0.3036   0.3037   0.3184   0.3185
  0.3238   0.3320   0.3330   0.3488   0.3505   0.3546   0.3591   0.3605
  0.3721   0.3736   0.3799   0.3834   0.3851   0.3902   0.4002   0.4073
  0.4143   0.4238   0.4321   0.4328   0.4379   0.4384   0.4507   0.4514
  0.4596   0.4599   0.4721   0.4852   0.5000   0.5069   0.5104   0.5119
  0.5175   0.5230   0.5343   0.5417   0.5423   0.5537   0.5575   0.5623
  0.5866   0.5942   0.5950   0.6022   0.6169   0.6283   0.6461   0.6693
  0.6797   0.6862   0.7157   0.7355   0.7531   0.7574   0.7698   0.7807
  0.8010   0.8103   0.8165   0.8471   0.8630   0.8733   0.8963   0.9147
  0.9286   0.9287   0.9478   0.9608   0.9646   0.9736   0.9764   0.9799
  1.0153   1.0371   1.0402   1.0516   1.0721   1.1152   1.1323   1.1556
  1.1576   1.1579   1.1879   1.2108   1.2231   1.2290   1.2400   1.2754
  1.2765   1.3264   1.3406   1.5390   1.5658   1.5851   1.5996   1.6367
  1.6535   1.6745   1.6867   1.6927   1.7026   1.7567   1.7583   1.7847
  1.7891   1.7959   1.8288   1.8940   1.8960   1.9020   1.9074   1.9339
  1.9409   1.9460   1.9719   2.0062   2.0177   2.0290   2.0712   2.0858
  2.1070   2.1178   2.2068   2.3269   2.3558   2.3565   2.4313   2.4323
  2.4871   2.4922   2.4928   2.5051   2.5081   2.5190   2.5980   2.7738
  2.7809   2.7830   2.8611   2.8622   3.0514   3.0571   3.0596   3.0885
  3.0957   3.1126   3.4453  18.8018  18.8420  19.6813  56.3249
 --------------------------------------------------------------
 
          Ground-State Mulliken Net Atomic Charges

     Atom                 Charge (a.u.)
  ----------------------------------------
      1 H                     0.154310
      2 Si                   -0.430464
      3 C                     0.471921
      4 H                    -0.160608
      5 H                    -0.139544
      6 H                    -0.130978
      7 C                     0.575418
      8 H                    -0.126155
      9 H                    -0.110472
     10 H                    -0.126143
     11 C                     0.471930
     12 H                    -0.130982
     13 H                    -0.160611
     14 H                    -0.139532
     15 I                     0.345275
     16 C                    -0.250173
     17 N                    -0.113193
  ----------------------------------------
  Sum of atomic charges =     0.000000

 -----------------------------------------------------------------
                    Cartesian Multipole Moments
 -----------------------------------------------------------------
    Charge (ESU x 10^10)
                -0.0000
    Dipole Moment (Debye)
         X      -5.5148      Y      -0.0011      Z       0.3773
       Tot       5.5276
    Quadrupole Moments (Debye-Ang)
        XX     -91.2199     XY      -0.0067     YY     -73.0385
        XZ       3.5469     YZ       0.0009     ZZ     -73.4238
    Octopole Moments (Debye-Ang^2)
       XXX     -74.7549    XXY      -0.0304    XYY      19.5972
       YYY       0.0005    XXZ      13.0096    XYZ       0.0030
       YYZ       7.0117    XZZ      18.6327    YZZ       0.0011
       ZZZ      10.5782
    Hexadecapole Moments (Debye-Ang^3)
      XXXX   -3837.4580   XXXY      -0.1780   XXYY    -599.8045
      XYYY      -0.0279   YYYY    -362.3456   XXXZ     100.0737
      XXYZ       0.0156   XYYZ     -10.9148   YYYZ       0.0028
      XXZZ    -600.0793   XYZZ      -0.0137   YYZZ    -115.2504
      XZZZ      -1.8349   YZZZ       0.0025   ZZZZ    -321.5331
 -----------------------------------------------------------------
 Calculating analytic gradient of the SCF energy
 Gradient of SCF Energy
            1           2           3           4           5           6
    1  -0.0001825   0.0006148   0.0000262  -0.0002852  -0.0000027   0.0002070
    2  -0.0000017   0.0000004  -0.0004874  -0.0000347   0.0001121  -0.0000568
    3   0.0019464  -0.0013788  -0.0002748   0.0001589  -0.0002453   0.0001071
            7           8           9          10          11          12
    1  -0.0001903  -0.0001037   0.0002087  -0.0001037   0.0000250   0.0002073
    2  -0.0000002   0.0002256   0.0000001  -0.0002256   0.0004858   0.0000563
    3   0.0005502  -0.0000877   0.0000754  -0.0000878  -0.0002754   0.0001077
           13          14          15          16          17
    1  -0.0002843  -0.0000024  -0.0009909  -0.0014029   0.0022597
    2   0.0000346  -0.0001106   0.0000274  -0.0000664   0.0000411
    3   0.0001588  -0.0002442  -0.0000986  -0.0001837  -0.0002282
 Max gradient component =       2.260E-03
 RMS gradient           =       5.581E-04
 Gradient time:  CPU 143.17 s  wall 9.10 s
 Geometry Optimization Parameters
   NAtoms,    NIC,     NZ,  NCons,   NDum,   NFix, NCnnct, MaxDiis
       17     109       0       0       0       0       0       0

 Cartesian Hessian Update
 Hessian updated using BFGS update


** GEOMETRY OPTIMIZATION IN DELOCALIZED INTERNAL COORDINATES **
   Searching for a Minimum

   Optimization Cycle:   3

                       Coordinates (Angstroms)
     ATOM                X               Y               Z
      1  H        -1.3339626129   -0.0000995190    0.8950848723
      2  Si       -2.5436186308   -0.0000259357   -0.0158786244
      3  C        -2.4800206403   -1.5585937907   -1.0794073114
      4  H        -1.5869574120   -1.5749114805   -1.7210166702
      5  H        -2.4643179743   -2.4675457988   -0.4599562030
      6  H        -3.3614732367   -1.6185512807   -1.7360827893
      7  C        -4.0599701348   -0.0001548022    1.1090373628
      8  H        -4.0779200012   -0.8887753830    1.7569903814
      9  H        -4.9866126934   -0.0001018799    0.5146456639
     10  H        -4.0779359726    0.8883330349    1.7571720204
     11  C        -2.4800609233    1.5587495229   -1.0791040337
     12  H        -3.3615126569    1.6188072205   -1.7357694070
     13  H        -1.5869949009    1.5752162384   -1.7207084149
     14  H        -2.4643843650    2.4675845732   -0.4594755784
     15  I         1.3405422580   -0.0000538305    0.2785851546
     16  C         3.3178829327   -0.0005361619   -0.1721616631
     17  N         4.4533869645    0.0007592732   -0.4204947602
   Point Group: c1    Number of degrees of freedom:    45


   Energy is   -800.261772020

 Hessian updated using BFGS update

 37 Hessian modes will be used to form the next step
  Hessian Eigenvalues:
     0.002000    0.003490    0.003492    0.003649    0.012176    0.034191
     0.035038    0.045244    0.049880    0.054350    0.054389    0.054784
     0.055211    0.055447    0.055672    0.146038    0.146915    0.159515
     0.160117    0.162606    0.175066    0.199954    0.200000    0.206080
     0.206395    0.217717    0.323531    0.334135    0.334187    0.334315
     0.334674    0.334843    0.334977    0.335076    0.335115    0.371597
     1.398149

 Minimum search - taking simple RFO step
 Searching for Lamda that Minimizes Along All modes
 Value Taken    Lamda =  -0.00044999
 Step Taken.  Stepsize is  0.155986

                             Maximum     Tolerance    Cnvgd?
         Gradient           0.002593      0.000300      NO
         Displacement       0.112896      0.001200      NO
         Energy change     -0.000127      0.000001      NO


 New Cartesian Coordinates Obtained by Inverse Iteration

 Displacement from previous Coordinates is:  1.089525
 ----------------------------------------------------------------
             Standard Nuclear Orientation (Angstroms)
    I     Atom           X                Y                Z
 ----------------------------------------------------------------
    1      H      -1.2906005987     0.0000970050     0.7529969359
    2      Si     -2.5521950994     0.0000148565    -0.0754454937
    3      C      -2.5635314577    -1.5617992006    -1.1379591402
    4      H      -1.7175419596    -1.5841485589    -1.8399971840
    5      H      -2.5074396880    -2.4665325725    -0.5154537904
    6      H      -3.4894805019    -1.6214127256    -1.7296837061
    7      C      -3.9900182347    -0.0003380086     1.1546002260
    8      H      -3.9590455297    -0.8887656561     1.8017926511
    9      H      -4.9581680517    -0.0004274503     0.6309191247
   10      H      -3.9593194829     0.8879590859     1.8019857106
   11      C      -2.5640131279     1.5620540162    -1.1376250102
   12      H      -3.4899733045     1.6215255660    -1.7293374575
   13      H      -1.7180247277     1.5848187600    -1.8396589409
   14      H      -2.5081780711     2.4666739141    -0.5149192933
   15      I       1.4597287975     0.0005868633     0.3026732400
   16      C       3.4587989570     0.0047270443     0.0182974327
   17      N       4.5950720810    -0.0049329388    -0.2317253048
 ----------------------------------------------------------------
 Nuclear Repulsion Energy =         426.01616439 hartrees
 There are       40 alpha and       40 beta electrons
 Applying Cartesian multipole field
    Component          Value
    ---------          -----
     (2,0,0)        1.00000E-11
     (0,2,0)        2.00000E-11
     (0,0,2)       -3.00000E-11
 Nucleus-field energy     =     0.0000000216 hartrees
 Requested basis set is def2-SVPD
 There are 103 shells and 239 basis functions
 A cutoff of  1.0D-14 yielded   4857 shell pairs
 There are     26161 function pairs (     29565 Cartesian)
 Requested basis set is def2-SVPD
 Compound shells will be simplified
 There are 103 shells and 239 basis functions
 A cutoff of  1.0D-14 yielded   4857 shell pairs
 There are     26161 function pairs (     29565 Cartesian)
 Smallest overlap matrix eigenvalue = 1.46E-04
 Guess MOs from SCF MO coefficient file

 -----------------------------------------------------------------------
  General SCF calculation program by
  Eric Jon Sundstrom, Paul Horn, Yuezhi Mao, Dmitri Zuev, Alec White,
  David Stuck, Shaama M.S., Shane Yost, Joonho Lee, David Small,
  Daniel Levine, Susi Lehtola, Hugh Burton, Evgeny Epifanovsky,
  Bang C. Huynh
 -----------------------------------------------------------------------
 Exchange:     0.2000 Hartree-Fock + 0.0800 Slater + 0.7200 B88
 Correlation:  0.1900 VWN1RPA + 0.8100 LYP
 Using Euler-Maclaurin-Lebedev (99,590) quadrature formula
 A restricted SCF calculation will be
 performed using DIIS
 SCF converges when DIIS error is below 1.0e-08
 ---------------------------------------
  Cycle       Energy         DIIS error
 ---------------------------------------
    1    -800.2520819540      1.50e-03  
    2    -800.2615921051      1.44e-04  
    3    -800.2616060419      1.66e-04  
    4    -800.2617613036      9.56e-05  
    5    -800.2618184884      1.36e-05  
    6    -800.2618196107      6.99e-06  
    7    -800.2618200769      8.66e-07  
    8    -800.2618200841      1.43e-07  
    9    -800.2618200842      6.80e-08  
   10    -800.2618200843      1.29e-08  
   11    -800.2618200843      2.26e-09  Convergence criterion met
 ---------------------------------------
 SCF time:   CPU 523.66s  wall 33.00s 
 SCF   energy =  -800.26182008
 Total energy =  -800.26182008
 
 --------------------------------------------------------------
 
                    Orbital Energies (a.u.)
 --------------------------------------------------------------
 
 Alpha MOs
 -- Occupied --
-66.1292 -14.3464 -10.2574 -10.1839 -10.1839 -10.1832  -6.9022  -5.2911
 -4.9321  -4.9127  -4.9126  -3.6539  -3.6527  -3.6526  -1.9796  -1.9731
 -1.9731  -1.9568  -1.9568  -0.9095  -0.7696  -0.7247  -0.6894  -0.6886
 -0.5110  -0.4909  -0.4353  -0.4251  -0.4248  -0.4089  -0.4081  -0.3991
 -0.3808  -0.3806  -0.3763  -0.3332  -0.3251  -0.3243  -0.2996  -0.2994
 -- Virtual --
 -0.0724  -0.0068  -0.0052  -0.0039   0.0118   0.0214   0.0234   0.0452
  0.0473   0.0528   0.0671   0.0726   0.0738   0.0791   0.0803   0.0844
  0.0893   0.0934   0.1027   0.1094   0.1105   0.1220   0.1234   0.1339
  0.1387   0.1444   0.1457   0.1709   0.1850   0.1916   0.1945   0.1960
  0.2104   0.2156   0.2280   0.2320   0.2404   0.2477   0.2653   0.2746
  0.2749   0.2890   0.2910   0.2981   0.3020   0.3057   0.3147   0.3184
  0.3216   0.3316   0.3342   0.3467   0.3500   0.3528   0.3595   0.3599
  0.3683   0.3717   0.3769   0.3816   0.3858   0.3911   0.4012   0.4047
  0.4147   0.4227   0.4303   0.4317   0.4372   0.4400   0.4504   0.4514
  0.4603   0.4618   0.4819   0.4824   0.4966   0.5073   0.5093   0.5112
  0.5195   0.5243   0.5330   0.5333   0.5388   0.5483   0.5524   0.5585
  0.5790   0.5872   0.5887   0.5989   0.6142   0.6255   0.6335   0.6687
  0.6750   0.6905   0.7138   0.7311   0.7487   0.7537   0.7728   0.7794
  0.8000   0.8107   0.8141   0.8508   0.8683   0.8716   0.8918   0.9109
  0.9307   0.9315   0.9517   0.9573   0.9590   0.9707   0.9770   0.9816
  1.0223   1.0332   1.0376   1.0482   1.0731   1.1006   1.1318   1.1543
  1.1544   1.1633   1.1875   1.2145   1.2167   1.2213   1.2398   1.2744
  1.2757   1.3267   1.3520   1.5361   1.5641   1.5862   1.5954   1.6378
  1.6488   1.6733   1.6854   1.6899   1.7013   1.7553   1.7562   1.7839
  1.7883   1.7969   1.8309   1.8928   1.8949   1.9048   1.9078   1.9351
  1.9383   1.9434   1.9723   2.0068   2.0194   2.0248   2.0710   2.0837
  2.1062   2.1190   2.2113   2.3276   2.3548   2.3557   2.4295   2.4303
  2.4877   2.4933   2.4934   2.5061   2.5081   2.5196   2.5941   2.7747
  2.7823   2.7843   2.8590   2.8620   3.0486   3.0579   3.0597   3.0891
  3.0954   3.1119   3.4424  18.7808  18.8006  19.6771  56.3159
 --------------------------------------------------------------
 
          Ground-State Mulliken Net Atomic Charges

     Atom                 Charge (a.u.)
  ----------------------------------------
      1 H                     0.187677
      2 Si                   -0.444141
      3 C                     0.460204
      4 H                    -0.155126
      5 H                    -0.141446
      6 H                    -0.132820
      7 C                     0.568892
      8 H                    -0.126505
      9 H                    -0.109906
     10 H                    -0.126574
     11 C                     0.460075
     12 H                    -0.132875
     13 H                    -0.155067
     14 H                    -0.141445
     15 I                     0.355247
     16 C                    -0.256461
     17 N                    -0.109730
  ----------------------------------------
  Sum of atomic charges =     0.000000

 -----------------------------------------------------------------
                    Cartesian Multipole Moments
 -----------------------------------------------------------------
    Charge (ESU x 10^10)
                -0.0000
    Dipole Moment (Debye)
         X      -5.5010      Y       0.0075      Z       0.1890
       Tot       5.5043
    Quadrupole Moments (Debye-Ang)
        XX     -92.4503     XY       0.0479     YY     -73.0726
        XZ       2.7978     YZ      -0.0040     ZZ     -73.2544
    Octopole Moments (Debye-Ang^2)
       XXX     -96.2881    XXY       0.2146    XYY      16.0943
       YYY      -0.0430    XXZ       6.9721    XYZ      -0.0123
       YYZ       5.6104    XZZ      16.2655    YZZ      -0.0134
       ZZZ       5.9995
    Hexadecapole Moments (Debye-Ang^3)
      XXXX   -4048.4189   XXXY       1.1274   XXYY    -625.6578
      XYYY       0.0635   YYYY    -363.8356   XXXZ      35.6200
      XXYZ      -0.0599   XYYZ     -25.8766   YYYZ      -0.0353
      XXZZ    -624.5635   XYZZ       0.0218   YYZZ    -118.0986
      XZZZ     -46.8522   YZZZ      -0.0360   ZZZZ    -335.4763
 -----------------------------------------------------------------
 Calculating analytic gradient of the SCF energy
 Gradient of SCF Energy
            1           2           3           4           5           6
    1  -0.0013065   0.0018209   0.0000958  -0.0003807  -0.0000440   0.0003070
    2   0.0000085   0.0000014  -0.0011701  -0.0000953   0.0004168   0.0000719
    3   0.0015010  -0.0016484  -0.0005975   0.0002409  -0.0002996   0.0002897
            7           8           9          10          11          12
    1  -0.0010595  -0.0000707   0.0002136  -0.0000711   0.0000849   0.0003110
    2  -0.0000003   0.0003922   0.0000001  -0.0003917   0.0011668  -0.0000702
    3   0.0016965  -0.0002524   0.0001749  -0.0002522  -0.0006005   0.0002895
           13          14          15          16          17
    1  -0.0003788  -0.0000435   0.0021610  -0.0057258   0.0040862
    2   0.0000962  -0.0004124  -0.0002015   0.0005243  -0.0003367
    3   0.0002370  -0.0002975  -0.0020771   0.0047046  -0.0031091
 Max gradient component =       5.726E-03
 RMS gradient           =       1.469E-03
 Gradient time:  CPU 141.21 s  wall 8.95 s
 Geometry Optimization Parameters
   NAtoms,    NIC,     NZ,  NCons,   NDum,   NFix, NCnnct, MaxDiis
       17     109       0       0       0       0       0       0

 Cartesian Hessian Update
 Hessian updated using BFGS update


** GEOMETRY OPTIMIZATION IN DELOCALIZED INTERNAL COORDINATES **
   Searching for a Minimum

   Optimization Cycle:   4

                       Coordinates (Angstroms)
     ATOM                X               Y               Z
      1  H        -1.2906005987    0.0000970050    0.7529969359
      2  Si       -2.5521950994    0.0000148565   -0.0754454937
      3  C        -2.5635314577   -1.5617992006   -1.1379591402
      4  H        -1.7175419596   -1.5841485589   -1.8399971840
      5  H        -2.5074396880   -2.4665325725   -0.5154537904
      6  H        -3.4894805019   -1.6214127256   -1.7296837061
      7  C        -3.9900182347   -0.0003380086    1.1546002260
      8  H        -3.9590455297   -0.8887656561    1.8017926511
      9  H        -4.9581680517   -0.0004274503    0.6309191247
     10  H        -3.9593194829    0.8879590859    1.8019857106
     11  C        -2.5640131279    1.5620540162   -1.1376250102
     12  H        -3.4899733045    1.6215255660   -1.7293374575
     13  H        -1.7180247277    1.5848187600   -1.8396589409
     14  H        -2.5081780711    2.4666739141   -0.5149192933
     15  I         1.4597287975    0.0005868633    0.3026732400
     16  C         3.4587989570    0.0047270443    0.0182974327
     17  N         4.5950720810   -0.0049329388   -0.2317253048
   Point Group: c1    Number of degrees of freedom:    45


   Energy is   -800.261820084

 Hessian updated using BFGS update

 38 Hessian modes will be used to form the next step
  Hessian Eigenvalues:
     0.002000    0.003490    0.003492    0.003649    0.009378    0.027755
     0.034587    0.045244    0.047971    0.054350    0.054388    0.054787
     0.055211    0.055408    0.055447    0.146038    0.146951    0.159831
     0.160002    0.160526    0.163979    0.195351    0.199958    0.200000
     0.200008    0.206080    0.209381    0.220548    0.334135    0.334164
     0.334298    0.334843    0.334887    0.335042    0.335115    0.343611
     0.904946    1.385135

 Minimum search - taking simple RFO step
 Searching for Lamda that Minimizes Along All modes
 Value Taken    Lamda =  -0.00058530
 Step Taken.  Stepsize is  0.102109

                             Maximum     Tolerance    Cnvgd?
         Gradient           0.017846      0.000300      NO
         Displacement       0.079821      0.001200      NO
         Energy change     -0.000048      0.000001      NO


 New Cartesian Coordinates Obtained by Inverse Iteration

 Displacement from previous Coordinates is:  0.741263
 ----------------------------------------------------------------
             Standard Nuclear Orientation (Angstroms)
    I     Atom           X                Y                Z
 ----------------------------------------------------------------
    1      H      -1.2571531685    -0.0001104339     0.6456965499
    2      Si     -2.5570969922    -0.0000311309    -0.1132619148
    3      C      -2.6200901118    -1.5604646425    -1.1728224075
    4      H      -1.8076595850    -1.5845949069    -1.9144173498
    5      H      -2.5350671281    -2.4637057912    -0.5504060560
    6      H      -3.5741218146    -1.6196406996    -1.7192273089
    7      C      -3.9351282642    -0.0001984258     1.1813356910
    8      H      -3.8706777210    -0.8892983583     1.8261389334
    9      H      -4.9287096488    -0.0001562748     0.7067500723
   10      H      -3.8707043353     0.8887561415     1.8263426005
   11      C      -2.6201229527     1.5606486304    -1.1724544215
   12      H      -3.5741490706     1.6199500247    -1.7188496266
   13      H      -1.8076839550     1.5849773465    -1.9140372259
   14      H      -2.5350985356     2.4637425834    -0.5498206056
   15      I       1.5229960056     0.0001373665     0.3090294681
   16      C       3.5303777969    -0.0000937634     0.0818691093
   17      N       4.6861594809     0.0001823343    -0.0404055078
 ----------------------------------------------------------------
 Nuclear Repulsion Energy =         423.33148824 hartrees
 There are       40 alpha and       40 beta electrons
 Applying Cartesian multipole field
    Component          Value
    ---------          -----
     (2,0,0)        1.00000E-11
     (0,2,0)        2.00000E-11
     (0,0,2)       -3.00000E-11
 Nucleus-field energy     =     0.0000000219 hartrees
 Requested basis set is def2-SVPD
 There are 103 shells and 239 basis functions
 A cutoff of  1.0D-14 yielded   4842 shell pairs
 There are     26070 function pairs (     29449 Cartesian)
 Requested basis set is def2-SVPD
 Compound shells will be simplified
 There are 103 shells and 239 basis functions
 A cutoff of  1.0D-14 yielded   4842 shell pairs
 There are     26070 function pairs (     29449 Cartesian)
 Smallest overlap matrix eigenvalue = 1.42E-04
 Guess MOs from SCF MO coefficient file

 -----------------------------------------------------------------------
  General SCF calculation program by
  Eric Jon Sundstrom, Paul Horn, Yuezhi Mao, Dmitri Zuev, Alec White,
  David Stuck, Shaama M.S., Shane Yost, Joonho Lee, David Small,
  Daniel Levine, Susi Lehtola, Hugh Burton, Evgeny Epifanovsky,
  Bang C. Huynh
 -----------------------------------------------------------------------
 Exchange:     0.2000 Hartree-Fock + 0.0800 Slater + 0.7200 B88
 Correlation:  0.1900 VWN1RPA + 0.8100 LYP
 Using Euler-Maclaurin-Lebedev (99,590) quadrature formula
 A restricted SCF calculation will be
 performed using DIIS
 SCF converges when DIIS error is below 1.0e-08
 ---------------------------------------
  Cycle       Energy         DIIS error
 ---------------------------------------
    1    -800.2478408877      1.83e-03  
    2    -800.2619542951      1.25e-04  
    3    -800.2620954408      7.22e-05  
    4    -800.2621042375      7.18e-05  
    5    -800.2621356052      2.09e-05  
    6    -800.2621382227      6.68e-06  
    7    -800.2621386191      7.90e-07  
    8    -800.2621386245      2.44e-07  
    9    -800.2621386250      9.96e-08  
   10    -800.2621386251      1.30e-08  
   11    -800.2621386251      3.31e-09  Convergence criterion met
 ---------------------------------------
 SCF time:   CPU 510.39s  wall 32.00s 
 SCF   energy =  -800.26213863
 Total energy =  -800.26213863
 
 --------------------------------------------------------------
 
                    Orbital Energies (a.u.)
 --------------------------------------------------------------
 
 Alpha MOs
 -- Occupied --
-66.1283 -14.3462 -10.2574 -10.1836 -10.1836 -10.1831  -6.9023  -5.2903
 -4.9322  -4.9128  -4.9127  -3.6531  -3.6519  -3.6519  -1.9797  -1.9732
 -1.9732  -1.9569  -1.9569  -0.9100  -0.7695  -0.7246  -0.6890  -0.6882
 -0.5103  -0.4911  -0.4351  -0.4248  -0.4247  -0.4086  -0.4080  -0.3988
 -0.3809  -0.3808  -0.3763  -0.3332  -0.3246  -0.3240  -0.2998  -0.2996
 -- Virtual --
 -0.0726  -0.0061  -0.0050  -0.0041   0.0109   0.0213   0.0233   0.0449
  0.0475   0.0524   0.0683   0.0728   0.0739   0.0792   0.0803   0.0851
  0.0886   0.0921   0.1018   0.1093   0.1100   0.1218   0.1238   0.1326
  0.1379   0.1433   0.1455   0.1700   0.1846   0.1905   0.1939   0.1962
  0.2103   0.2120   0.2255   0.2334   0.2409   0.2451   0.2658   0.2736
  0.2749   0.2876   0.2919   0.3001   0.3025   0.3059   0.3137   0.3180
  0.3225   0.3315   0.3345   0.3472   0.3492   0.3523   0.3597   0.3600
  0.3662   0.3704   0.3789   0.3814   0.3864   0.3892   0.4011   0.4026
  0.4134   0.4228   0.4308   0.4308   0.4376   0.4377   0.4505   0.4524
  0.4608   0.4643   0.4798   0.4801   0.4955   0.5077   0.5107   0.5108
  0.5209   0.5240   0.5307   0.5316   0.5363   0.5480   0.5513   0.5580
  0.5760   0.5833   0.5847   0.5983   0.6106   0.6246   0.6277   0.6687
  0.6697   0.6934   0.7141   0.7286   0.7496   0.7505   0.7741   0.7780
  0.7948   0.8090   0.8164   0.8535   0.8694   0.8718   0.8914   0.9070
  0.9309   0.9326   0.9487   0.9549   0.9611   0.9702   0.9779   0.9827
  1.0238   1.0321   1.0372   1.0474   1.0749   1.0957   1.1320   1.1508
  1.1539   1.1684   1.1956   1.2179   1.2223   1.2244   1.2347   1.2696
  1.2762   1.3281   1.3555   1.5399   1.5639   1.5865   1.5930   1.6379
  1.6454   1.6719   1.6852   1.6886   1.7009   1.7548   1.7555   1.7840
  1.7861   1.7975   1.8287   1.8925   1.8953   1.9045   1.9067   1.9343
  1.9348   1.9454   1.9716   2.0065   2.0179   2.0244   2.0719   2.0828
  2.1080   2.1207   2.2127   2.3272   2.3534   2.3543   2.4294   2.4302
  2.4869   2.4925   2.4927   2.5057   2.5074   2.5196   2.6024   2.7745
  2.7820   2.7842   2.8610   2.8613   3.0455   3.0570   3.0579   3.0884
  3.0939   3.1105   3.4449  18.7727  18.7888  19.6691  56.3080
 --------------------------------------------------------------
 
          Ground-State Mulliken Net Atomic Charges

     Atom                 Charge (a.u.)
  ----------------------------------------
      1 H                     0.210316
      2 Si                   -0.466153
      3 C                     0.451839
      4 H                    -0.150576
      5 H                    -0.139286
      6 H                    -0.131656
      7 C                     0.558030
      8 H                    -0.123975
      9 H                    -0.108466
     10 H                    -0.123981
     11 C                     0.451839
     12 H                    -0.131683
     13 H                    -0.150569
     14 H                    -0.139276
     15 I                     0.347270
     16 C                    -0.237538
     17 N                    -0.116136
  ----------------------------------------
  Sum of atomic charges =     0.000000

 -----------------------------------------------------------------
                    Cartesian Multipole Moments
 -----------------------------------------------------------------
    Charge (ESU x 10^10)
                -0.0000
    Dipole Moment (Debye)
         X      -5.5402      Y      -0.0001      Z      -0.0162
       Tot       5.5403
    Quadrupole Moments (Debye-Ang)
        XX     -93.3333     XY      -0.0015     YY     -73.1189
        XZ       1.5625     YZ       0.0001     ZZ     -73.1158
    Octopole Moments (Debye-Ang^2)
       XXX    -110.5792    XXY      -0.0107    XYY      14.3090
       YYY      -0.0123    XXZ      -0.0492    XYZ       0.0000
       YYZ       4.9238    XZZ      15.0736    YZZ      -0.0026
       ZZZ       3.6001
    Hexadecapole Moments (Debye-Ang^3)
      XXXX   -4179.8772   XXXY      -0.0742   XXYY    -640.8136
      XYYY      -0.0313   YYYY    -364.0324   XXXZ     -27.7294
      XXYZ      -0.0012   XYYZ     -36.5433   YYYZ      -0.0060
      XXZZ    -639.3103   XYZZ      -0.0145   YYZZ    -119.9321
      XZZZ     -78.2122   YZZZ      -0.0068   ZZZZ    -345.0554
 -----------------------------------------------------------------
 Calculating analytic gradient of the SCF energy
 Gradient of SCF Energy
            1           2           3           4           5           6
    1  -0.0020226   0.0020438   0.0000513  -0.0000039  -0.0000074  -0.0000179
    2  -0.0000011   0.0000011  -0.0004769  -0.0000577   0.0002736   0.0001688
    3   0.0005221  -0.0008851  -0.0002449  -0.0000511   0.0000966   0.0001430
            7           8           9          10          11          12
    1  -0.0009573   0.0001290  -0.0001373   0.0001287   0.0000468  -0.0000166
    2  -0.0000006   0.0000391   0.0000002  -0.0000389   0.0004742  -0.0001689
    3   0.0010038  -0.0001730   0.0001050  -0.0001729  -0.0002452   0.0001434
           13          14          15          16          17
    1  -0.0000025  -0.0000058   0.0019441  -0.0031198   0.0019476
    2   0.0000588  -0.0002727   0.0000083  -0.0000180   0.0000108
    3  -0.0000512   0.0000969  -0.0002629  -0.0000254   0.0000009
 Max gradient component =       3.120E-03
 RMS gradient           =       7.619E-04
 Gradient time:  CPU 141.06 s  wall 8.94 s
 Geometry Optimization Parameters
   NAtoms,    NIC,     NZ,  NCons,   NDum,   NFix, NCnnct, MaxDiis
       17     109       0       0       0       0       0       0

 Cartesian Hessian Update
 Hessian updated using BFGS update


** GEOMETRY OPTIMIZATION IN DELOCALIZED INTERNAL COORDINATES **
   Searching for a Minimum

   Optimization Cycle:   5

                       Coordinates (Angstroms)
     ATOM                X               Y               Z
      1  H        -1.2571531685   -0.0001104339    0.6456965499
      2  Si       -2.5570969922   -0.0000311309   -0.1132619148
      3  C        -2.6200901118   -1.5604646425   -1.1728224075
      4  H        -1.8076595850   -1.5845949069   -1.9144173498
      5  H        -2.5350671281   -2.4637057912   -0.5504060560
      6  H        -3.5741218146   -1.6196406996   -1.7192273089
      7  C        -3.9351282642   -0.0001984258    1.1813356910
      8  H        -3.8706777210   -0.8892983583    1.8261389334
      9  H        -4.9287096488   -0.0001562748    0.7067500723
     10  H        -3.8707043353    0.8887561415    1.8263426005
     11  C        -2.6201229527    1.5606486304   -1.1724544215
     12  H        -3.5741490706    1.6199500247   -1.7188496266
     13  H        -1.8076839550    1.5849773465   -1.9140372259
     14  H        -2.5350985356    2.4637425834   -0.5498206056
     15  I         1.5229960056    0.0001373665    0.3090294681
     16  C         3.5303777969   -0.0000937634    0.0818691093
     17  N         4.6861594809    0.0001823343   -0.0404055078
   Point Group: c1    Number of degrees of freedom:    45


   Energy is   -800.262138625

 Hessian updated using BFGS update

 40 Hessian modes will be used to form the next step
  Hessian Eigenvalues:
     0.002000    0.003489    0.003490    0.003649    0.008950    0.023990
     0.034583    0.045244    0.046566    0.054350    0.054355    0.054801
     0.055211    0.055284    0.055447    0.146038    0.146967    0.159793
     0.159952    0.160000    0.160821    0.165611    0.191256    0.199948
     0.199999    0.200024    0.206080    0.207061    0.217369    0.334134
     0.334145    0.334303    0.334674    0.334810    0.334844    0.335037
     0.335115    0.343273    1.087990    1.373696

 Minimum search - taking simple RFO step
 Searching for Lamda that Minimizes Along All modes
 Value Taken    Lamda =  -0.00010752
 Step Taken.  Stepsize is  0.063990

                             Maximum     Tolerance    Cnvgd?
         Gradient           0.002018      0.000300      NO
         Displacement       0.046375      0.001200      NO
         Energy change     -0.000319      0.000001      NO


 New Cartesian Coordinates Obtained by Inverse Iteration

 Displacement from previous Coordinates is:  0.421437
 ----------------------------------------------------------------
             Standard Nuclear Orientation (Angstroms)
    I     Atom           X                Y                Z
 ----------------------------------------------------------------
    1      H      -1.2316698070    -0.0001598146     0.5804473539
    2      Si     -2.5577266634    -0.0000379802    -0.1353771265
    3      C      -2.6520304328    -1.5599643050    -1.1930260512
    4      H      -1.8606213940    -1.5835531685    -1.9569744969
    5      H      -2.5492718397    -2.4642188445    -0.5743312853
    6      H      -3.6207556259    -1.6196704375    -1.7130491131
    7      C      -3.8960678139    -0.0001552188     1.1970326886
    8      H      -3.8138256335    -0.8892347503     1.8401836000
    9      H      -4.9025065749    -0.0000783270     0.7507378573
   10      H      -3.8137815469     0.8887740863     1.8403857618
   11      C      -2.6519349582     1.5601425388    -1.1926559944
   12      H      -3.6206522371     1.6200421931    -1.7126692347
   13      H      -1.8605172141     1.5838678437    -1.9565921615
   14      H      -2.5491109975     2.4642414173    -0.5737431116
   15      I       1.5461827435    -0.0000120527     0.3158711985
   16      C       3.5610690130    -0.0018303659     0.1414062269
   17      N       4.7192909823     0.0019471856     0.0538138883
 ----------------------------------------------------------------
 Nuclear Repulsion Energy =         422.23702433 hartrees
 There are       40 alpha and       40 beta electrons
 Applying Cartesian multipole field
    Component          Value
    ---------          -----
     (2,0,0)        1.00000E-11
     (0,2,0)        2.00000E-11
     (0,0,2)       -3.00000E-11
 Nucleus-field energy     =     0.0000000220 hartrees
 Requested basis set is def2-SVPD
 There are 103 shells and 239 basis functions
 A cutoff of  1.0D-14 yielded   4834 shell pairs
 There are     26050 function pairs (     29429 Cartesian)
 Requested basis set is def2-SVPD
 Compound shells will be simplified
 There are 103 shells and 239 basis functions
 A cutoff of  1.0D-14 yielded   4834 shell pairs
 There are     26050 function pairs (     29429 Cartesian)
 Smallest overlap matrix eigenvalue = 1.40E-04
 Guess MOs from SCF MO coefficient file

 -----------------------------------------------------------------------
  General SCF calculation program by
  Eric Jon Sundstrom, Paul Horn, Yuezhi Mao, Dmitri Zuev, Alec White,
  David Stuck, Shaama M.S., Shane Yost, Joonho Lee, David Small,
  Daniel Levine, Susi Lehtola, Hugh Burton, Evgeny Epifanovsky,
  Bang C. Huynh
 -----------------------------------------------------------------------
 Exchange:     0.2000 Hartree-Fock + 0.0800 Slater + 0.7200 B88
 Correlation:  0.1900 VWN1RPA + 0.8100 LYP
 Using Euler-Maclaurin-Lebedev (99,590) quadrature formula
 A restricted SCF calculation will be
 performed using DIIS
 SCF converges when DIIS error is below 1.0e-08
 ---------------------------------------
  Cycle       Energy         DIIS error
 ---------------------------------------
    1    -800.2600028075      7.42e-04  
    2    -800.2621962281      5.37e-05  
    3    -800.2622207007      3.33e-05  
    4    -800.2622312384      8.49e-06  
    5    -800.2622314035      8.17e-06  
    6    -800.2622318123      2.51e-06  
    7    -800.2622318529      4.42e-07  
    8    -800.2622318544      7.27e-08  
    9    -800.2622318544      5.06e-08  
   10    -800.2622318545      6.14e-09  Convergence criterion met
 ---------------------------------------
 SCF time:   CPU 460.60s  wall 28.00s 
 SCF   energy =  -800.26223185
 Total energy =  -800.26223185
 
 --------------------------------------------------------------
 
                    Orbital Energies (a.u.)
 --------------------------------------------------------------
 
 Alpha MOs
 -- Occupied --
-66.1285 -14.3458 -10.2571 -10.1836 -10.1836 -10.1832  -6.9020  -5.2904
 -4.9320  -4.9125  -4.9125  -3.6532  -3.6520  -3.6520  -1.9795  -1.9730
 -1.9729  -1.9567  -1.9567  -0.9100  -0.7690  -0.7247  -0.6890  -0.6884
 -0.5100  -0.4910  -0.4352  -0.4248  -0.4248  -0.4085  -0.4081  -0.3987
 -0.3806  -0.3806  -0.3762  -0.3333  -0.3247  -0.3243  -0.2996  -0.2995
 -- Virtual --
 -0.0731  -0.0058  -0.0047  -0.0040   0.0109   0.0212   0.0230   0.0452
  0.0477   0.0523   0.0688   0.0729   0.0739   0.0792   0.0801   0.0855
  0.0885   0.0913   0.1008   0.1091   0.1096   0.1216   0.1238   0.1318
  0.1376   0.1431   0.1455   0.1703   0.1843   0.1901   0.1937   0.1963
  0.2096   0.2111   0.2242   0.2341   0.2408   0.2439   0.2657   0.2729
  0.2749   0.2886   0.2921   0.2994   0.3025   0.3065   0.3129   0.3177
  0.3224   0.3313   0.3349   0.3474   0.3487   0.3513   0.3596   0.3600
  0.3655   0.3692   0.3791   0.3811   0.3865   0.3882   0.4013   0.4017
  0.4136   0.4227   0.4303   0.4307   0.4379   0.4383   0.4505   0.4528
  0.4609   0.4657   0.4785   0.4826   0.4933   0.5077   0.5106   0.5123
  0.5215   0.5236   0.5297   0.5306   0.5347   0.5470   0.5501   0.5576
  0.5750   0.5817   0.5832   0.5980   0.6087   0.6240   0.6254   0.6675
  0.6683   0.6950   0.7146   0.7287   0.7493   0.7494   0.7755   0.7774
  0.7923   0.8091   0.8184   0.8540   0.8671   0.8739   0.8916   0.9056
  0.9311   0.9333   0.9464   0.9527   0.9639   0.9703   0.9780   0.9837
  1.0245   1.0313   1.0364   1.0468   1.0763   1.0951   1.1322   1.1493
  1.1537   1.1716   1.1976   1.2190   1.2231   1.2245   1.2348   1.2687
  1.2764   1.3290   1.3550   1.5410   1.5640   1.5862   1.5916   1.6378
  1.6440   1.6711   1.6852   1.6879   1.7008   1.7548   1.7554   1.7847
  1.7865   1.7980   1.8274   1.8925   1.8957   1.9041   1.9067   1.9334
  1.9336   1.9471   1.9709   2.0060   2.0158   2.0244   2.0714   2.0823
  2.1086   2.1203   2.2118   2.3271   2.3537   2.3547   2.4296   2.4303
  2.4865   2.4922   2.4923   2.5056   2.5070   2.5197   2.6031   2.7739
  2.7812   2.7840   2.8620   2.8623   3.0448   3.0569   3.0573   3.0886
  3.0939   3.1103   3.4463  18.7701  18.7833  19.6606  56.3058
 --------------------------------------------------------------
 
          Ground-State Mulliken Net Atomic Charges

     Atom                 Charge (a.u.)
  ----------------------------------------
      1 H                     0.214095
      2 Si                   -0.466234
      3 C                     0.450814
      4 H                    -0.149225
      5 H                    -0.139161
      6 H                    -0.132675
      7 C                     0.552354
      8 H                    -0.124063
      9 H                    -0.107925
     10 H                    -0.124042
     11 C                     0.450839
     12 H                    -0.132695
     13 H                    -0.149221
     14 H                    -0.139154
     15 I                     0.348298
     16 C                    -0.234164
     17 N                    -0.117840
  ----------------------------------------
  Sum of atomic charges =     0.000000

 -----------------------------------------------------------------
                    Cartesian Multipole Moments
 -----------------------------------------------------------------
    Charge (ESU x 10^10)
                 0.0000
    Dipole Moment (Debye)
         X      -5.5887      Y      -0.0027      Z      -0.1103
       Tot       5.5898
    Quadrupole Moments (Debye-Ang)
        XX     -93.5826     XY      -0.0192     YY     -73.1233
        XZ       0.9946     YZ       0.0005     ZZ     -73.0823
    Octopole Moments (Debye-Ang^2)
       XXX    -116.4010    XXY      -0.0939    XYY      13.5912
       YYY      -0.0016    XXZ      -3.4669    XYZ      -0.0007
       YYZ       4.3545    XZZ      14.4397    YZZ       0.0011
       ZZZ       1.8773
    Hexadecapole Moments (Debye-Ang^3)
      XXXX   -4225.5998   XXXY      -0.5186   XXYY    -646.3792
      XYYY      -0.0579   YYYY    -363.9240   XXXZ     -63.3968
      XXYZ      -0.0056   XYYZ     -42.7836   YYYZ      -0.0002
      XXZZ    -646.0685   XYZZ      -0.0233   YYZZ    -121.2890
      XZZZ     -97.0189   YZZZ      -0.0012   ZZZZ    -352.5742
 -----------------------------------------------------------------
 Calculating analytic gradient of the SCF energy
 Gradient of SCF Energy
            1           2           3           4           5           6
    1  -0.0013671   0.0010780   0.0000309  -0.0000422   0.0000050  -0.0000304
    2  -0.0000044   0.0000003  -0.0001932  -0.0000605   0.0001208   0.0000876
    3   0.0005968  -0.0005300  -0.0002167  -0.0000154   0.0001309   0.0000779
            7           8           9          10          11          12
    1  -0.0007012   0.0001481  -0.0000419   0.0001481   0.0000306  -0.0000305
    2  -0.0000004  -0.0000420   0.0000001   0.0000420   0.0001915  -0.0000883
    3   0.0002485  -0.0000951   0.0001511  -0.0000952  -0.0002163   0.0000784
           13          14          15          16          17
    1  -0.0000415   0.0000062   0.0012284  -0.0007754   0.0003549
    2   0.0000610  -0.0001209   0.0000836  -0.0001984   0.0001210
    3  -0.0000144   0.0001309  -0.0000562  -0.0004572   0.0002819
 Max gradient component =       1.367E-03
 RMS gradient           =       3.751E-04
 Gradient time:  CPU 141.99 s  wall 9.00 s
 Geometry Optimization Parameters
   NAtoms,    NIC,     NZ,  NCons,   NDum,   NFix, NCnnct, MaxDiis
       17     109       0       0       0       0       0       0

 Cartesian Hessian Update
 Hessian updated using BFGS update


** GEOMETRY OPTIMIZATION IN DELOCALIZED INTERNAL COORDINATES **
   Searching for a Minimum

   Optimization Cycle:   6

                       Coordinates (Angstroms)
     ATOM                X               Y               Z
      1  H        -1.2316698070   -0.0001598146    0.5804473539
      2  Si       -2.5577266634   -0.0000379802   -0.1353771265
      3  C        -2.6520304328   -1.5599643050   -1.1930260512
      4  H        -1.8606213940   -1.5835531685   -1.9569744969
      5  H        -2.5492718397   -2.4642188445   -0.5743312853
      6  H        -3.6207556259   -1.6196704375   -1.7130491131
      7  C        -3.8960678139   -0.0001552188    1.1970326886
      8  H        -3.8138256335   -0.8892347503    1.8401836000
      9  H        -4.9025065749   -0.0000783270    0.7507378573
     10  H        -3.8137815469    0.8887740863    1.8403857618
     11  C        -2.6519349582    1.5601425388   -1.1926559944
     12  H        -3.6206522371    1.6200421931   -1.7126692347
     13  H        -1.8605172141    1.5838678437   -1.9565921615
     14  H        -2.5491109975    2.4642414173   -0.5737431116
     15  I         1.5461827435   -0.0000120527    0.3158711985
     16  C         3.5610690130   -0.0018303659    0.1414062269
     17  N         4.7192909823    0.0019471856    0.0538138883
   Point Group: c1    Number of degrees of freedom:    45


   Energy is   -800.262231854

 Hessian updated using BFGS update

 40 Hessian modes will be used to form the next step
  Hessian Eigenvalues:
     0.002000    0.003307    0.003490    0.003649    0.004441    0.011557
     0.034759    0.045244    0.045589    0.054220    0.054350    0.054649
     0.055061    0.055211    0.055447    0.146038    0.146556    0.152457
     0.159991    0.160000    0.160089    0.160524    0.166912    0.188793
     0.199942    0.200001    0.202818    0.206080    0.217192    0.244968
     0.334135    0.334243    0.334326    0.334674    0.334843    0.334996
     0.337559    0.343427    1.098792    1.423286

[...]
 IR Intens:       10.051                 10.053                  9.746
 Raman Active:       YES                    YES                    YES
               X      Y      Z        X      Y      Z        X      Y      Z
 H         -0.060  0.124  0.286    0.025  0.294 -0.120   -0.077 -0.003  0.366
 Si        -0.031  0.064  0.148    0.013  0.152 -0.062   -0.010 -0.000  0.048
 C         -0.053 -0.193 -0.073   -0.023 -0.101 -0.133   -0.022  0.044 -0.088
 H         -0.029 -0.034 -0.069   -0.091 -0.395 -0.169   -0.004 -0.315 -0.063
 H         -0.073 -0.329 -0.278   -0.025  0.017  0.069    0.081  0.293  0.283
 H         -0.031 -0.181 -0.189   -0.047 -0.199 -0.029   -0.033 -0.229  0.028
 C          0.123  0.028 -0.208   -0.052  0.067  0.087    0.078  0.001  0.010
 H          0.204 -0.043 -0.353    0.055 -0.066 -0.145   -0.131 -0.026  0.049
 H          0.137 -0.040 -0.260   -0.057 -0.096  0.109    0.126 -0.001 -0.341
 H          0.104 -0.018 -0.144   -0.184 -0.077  0.354   -0.133  0.024  0.056
 C         -0.021  0.063  0.044    0.054 -0.209  0.145   -0.023 -0.043 -0.087
 H          0.012 -0.015 -0.111    0.055 -0.269  0.155   -0.033  0.233  0.024
 H          0.045 -0.258  0.072    0.084 -0.300  0.167   -0.002  0.311 -0.061
 H         -0.033  0.243 -0.243    0.070 -0.223  0.151    0.083 -0.292  0.281
 I         -0.000 -0.000 -0.000    0.000 -0.000  0.000   -0.000  0.000 -0.000
 C          0.000  0.001  0.002   -0.000  0.002 -0.001    0.000 -0.000  0.001
 N          0.001 -0.000 -0.000   -0.000 -0.000  0.000    0.000  0.000 -0.000
 TransDip  -0.016  0.039  0.092    0.007  0.094 -0.039   -0.013 -0.001  0.099

 Mode:                22                     23                     24
 Frequency:       835.73                 856.06                 895.40
 Force Cnst:      0.5632                 0.6742                 0.6446
 Red. Mass:       1.3687                 1.5615                 1.3645
 IR Active:          YES                    YES                    YES
 IR Intens:       10.573                128.341                143.075
 Raman Active:       YES                    YES                    YES
               X      Y      Z        X      Y      Z        X      Y      Z
 H         -0.001  0.368  0.003    0.057  0.000  0.017   -0.158 -0.001  0.750
 Si        -0.000  0.051  0.000    0.089 -0.000  0.017    0.016  0.000 -0.085
 C         -0.076 -0.031  0.028   -0.099  0.017 -0.009   -0.039 -0.010  0.052
 H          0.122  0.244  0.133    0.172  0.106  0.146    0.079  0.258  0.111
 H          0.083 -0.074 -0.113    0.186  0.139  0.069    0.058 -0.075 -0.108
 H          0.002 -0.231 -0.233   -0.012 -0.384 -0.232    0.013 -0.039 -0.138
 C          0.001 -0.107  0.000   -0.091  0.000 -0.039    0.049 -0.000  0.053
 H         -0.171  0.106  0.371    0.217  0.042 -0.092   -0.171 -0.018  0.118
 H          0.001  0.167 -0.003   -0.149 -0.000  0.419    0.079  0.000 -0.210
 H          0.169  0.107 -0.370    0.217 -0.042 -0.092   -0.171  0.018  0.117
 C          0.075 -0.032 -0.029   -0.099 -0.017 -0.009   -0.039  0.010  0.052
 H         -0.002 -0.227  0.234   -0.012  0.384 -0.232    0.013  0.039 -0.138
 H         -0.122  0.249 -0.134    0.172 -0.106  0.146    0.079 -0.258  0.111
 H         -0.082 -0.079  0.118    0.186 -0.139  0.069    0.058  0.074 -0.108
 I         -0.000 -0.000 -0.000   -0.001  0.000 -0.000    0.000  0.000 -0.000
 C          0.000  0.001  0.000    0.002 -0.000  0.000   -0.000 -0.000  0.003
 N          0.000 -0.000 -0.000    0.003  0.000  0.001    0.000  0.000 -0.000
 TransDip   0.000  0.104  0.001    0.357 -0.000  0.064    0.086  0.001 -0.373

 Mode:                25                     26                     27
 Frequency:       896.95                1260.87                1261.20
 Force Cnst:      0.6430                 1.1832                 1.1840
 Red. Mass:       1.3566                 1.2631                 1.2633
 IR Active:          YES                    YES                    YES
 IR Intens:      142.189                 32.399                 32.703
 Raman Active:       YES                    YES                    YES
               X      Y      Z        X      Y      Z        X      Y      Z
 H         -0.000  0.772  0.001    0.003  0.000 -0.015    0.000 -0.015 -0.000
 Si        -0.000 -0.086 -0.000   -0.003 -0.000  0.012   -0.000  0.013  0.000
 C         -0.047  0.047 -0.020   -0.011 -0.046 -0.034   -0.021 -0.090 -0.055
 H          0.091 -0.008  0.070    0.103  0.186  0.039    0.179  0.356  0.071
 H          0.109  0.199  0.161    0.065  0.115  0.178    0.133  0.204  0.321
 H         -0.019 -0.192 -0.050   -0.051  0.183  0.113   -0.089  0.355  0.181
 C          0.000  0.064  0.000    0.062  0.000 -0.109    0.001 -0.004 -0.001
 H          0.082 -0.064 -0.209   -0.300  0.173  0.322    0.001  0.004  0.010
 H          0.000 -0.113 -0.000   -0.041 -0.000  0.477   -0.000  0.015  0.005
 H         -0.082 -0.064  0.210   -0.300 -0.173  0.322   -0.008  0.001 -0.003
 C          0.047  0.047  0.020   -0.011  0.048 -0.035    0.021 -0.089  0.054
 H          0.019 -0.192  0.050   -0.053 -0.191  0.116    0.088  0.351 -0.179
 H         -0.091 -0.009 -0.069    0.107 -0.193  0.040   -0.177  0.353 -0.071
 H         -0.109  0.200 -0.161    0.067 -0.119  0.185   -0.132  0.202 -0.317
 I         -0.000 -0.000 -0.000   -0.000  0.000 -0.000   -0.000 -0.000 -0.000
 C          0.000  0.003  0.000   -0.000 -0.000  0.000   -0.000  0.000  0.000
 N          0.000 -0.000 -0.000    0.000  0.000 -0.000    0.000 -0.000 -0.000
 TransDip   0.000 -0.382 -0.001   -0.038 -0.002  0.178   -0.000  0.183  0.002

 Mode:                28                     29                     30
 Frequency:      1270.81                1418.48                1422.14
 Force Cnst:      1.1727                 1.2481                 1.2515
 Red. Mass:       1.2325                 1.0528                 1.0503
 IR Active:          YES                    YES                    YES
 IR Intens:        3.549                  0.001                  0.027
 Raman Active:       YES                    YES                    YES
               X      Y      Z        X      Y      Z        X      Y      Z
 H         -0.017  0.000 -0.003    0.000  0.000 -0.000   -0.002 -0.000  0.008
 Si        -0.003 -0.000 -0.001   -0.000 -0.000  0.000   -0.000 -0.000  0.001
 C          0.019  0.069  0.045    0.007  0.018 -0.031    0.019 -0.014  0.014
 H         -0.157 -0.289 -0.066    0.240  0.057  0.119   -0.246  0.141 -0.151
 H         -0.116 -0.173 -0.263   -0.256 -0.086 -0.064   -0.076  0.068  0.174
 H          0.076 -0.290 -0.155   -0.074 -0.211  0.354    0.068 -0.018 -0.216
 C          0.041  0.000 -0.068   -0.000 -0.037 -0.000   -0.041 -0.000 -0.025
 H         -0.208  0.109  0.213    0.278  0.033 -0.026    0.276  0.300  0.302
 H         -0.026 -0.000  0.317    0.000  0.428  0.000    0.010  0.005 -0.275
 H         -0.208 -0.109  0.213   -0.278  0.033  0.026    0.269 -0.299  0.302
 C          0.019 -0.069  0.045   -0.007  0.018  0.031    0.021  0.014  0.013
 H          0.076  0.289 -0.154    0.073 -0.211 -0.355    0.070  0.029 -0.216
 H         -0.157  0.289 -0.066   -0.240  0.057 -0.119   -0.255 -0.155 -0.158
 H         -0.116  0.173 -0.263    0.256 -0.086  0.064   -0.095 -0.069  0.185
 I         -0.000  0.000 -0.000    0.000 -0.000 -0.000   -0.000 -0.000  0.000
 C          0.000 -0.000 -0.000    0.000 -0.000 -0.000    0.000  0.000 -0.000
 N          0.000  0.000  0.000    0.000 -0.000 -0.000    0.000 -0.000  0.000
 TransDip  -0.058 -0.000 -0.018   -0.000  0.001  0.000    0.001  0.000 -0.005

 Mode:                31                     32                     33
 Frequency:      1422.19                1430.91                1430.92
 Force Cnst:      1.2516                 1.2625                 1.2625
 Red. Mass:       1.0503                 1.0465                 1.0465
 IR Active:          YES                    YES                    YES
 IR Intens:        0.061                  3.416                  3.504
 Raman Active:       YES                    YES                    YES
               X      Y      Z        X      Y      Z        X      Y      Z
 H          0.000 -0.008 -0.000   -0.003  0.023  0.014   -0.005 -0.015  0.022
 Si         0.000 -0.001 -0.000    0.001 -0.006 -0.004    0.001  0.004 -0.006
 C         -0.041  0.007  0.006    0.018 -0.003  0.000    0.007  0.022 -0.038
 H          0.190 -0.323  0.144   -0.108  0.140 -0.076    0.331  0.075  0.170
 H          0.410 -0.025 -0.243   -0.175  0.015  0.113   -0.326 -0.126 -0.104
 H         -0.045  0.257  0.014    0.029 -0.113 -0.036   -0.100 -0.268  0.471
 C          0.001 -0.019  0.001   -0.008 -0.036 -0.004   -0.013  0.023 -0.006
 H          0.145  0.011 -0.024    0.360  0.092  0.022   -0.102  0.072  0.116
 H         -0.000  0.230  0.006    0.002  0.455 -0.060    0.004 -0.288 -0.096
 H         -0.157  0.024  0.011   -0.247 -0.025  0.096    0.282 -0.114  0.069
 C          0.040  0.007 -0.007   -0.002 -0.021 -0.034    0.019 -0.007 -0.016
 H          0.042  0.256 -0.004   -0.102  0.194  0.441   -0.017  0.217  0.169
 H         -0.179 -0.316 -0.137    0.346 -0.007  0.186    0.044 -0.159  0.004
 H         -0.407 -0.022  0.235   -0.220  0.120 -0.142   -0.297  0.040  0.058
 I          0.000 -0.000 -0.000    0.000  0.000 -0.000    0.000 -0.000 -0.000
 C         -0.000  0.000  0.000   -0.000 -0.000  0.000   -0.000  0.000  0.000
 N         -0.000 -0.000 -0.000   -0.000  0.000 -0.000   -0.000 -0.000 -0.000
 TransDip  -0.000  0.008  0.000   -0.006  0.050  0.032   -0.010 -0.031  0.050

 Mode:                34                     35                     36
 Frequency:      1438.78                2125.31                2295.01
 Force Cnst:      1.2742                 2.7648                38.3292
 Red. Mass:       1.0447                 1.0389                12.3512
 IR Active:          YES                    YES                    YES
 IR Intens:        6.870                887.861                 13.520
 Raman Active:       YES                    YES                    YES
               X      Y      Z        X      Y      Z        X      Y      Z
 H         -0.004 -0.000 -0.000    0.978 -0.000  0.205   -0.186  0.000 -0.038
 Si        -0.009  0.000 -0.002   -0.031  0.000 -0.007    0.006 -0.000  0.001
 C         -0.031  0.010 -0.001   -0.002  0.000 -0.000    0.000  0.000  0.000
 H          0.217 -0.275  0.151   -0.003 -0.002  0.003    0.000  0.000 -0.000
 H          0.294 -0.049 -0.235   -0.002  0.002 -0.003   -0.000 -0.000  0.000
 H         -0.056  0.183  0.099   -0.004 -0.010 -0.007    0.001  0.000  0.000
 C         -0.027  0.000 -0.017   -0.002  0.000 -0.001    0.000 -0.000 -0.000
 H          0.194  0.223  0.230   -0.002  0.004 -0.001   -0.000 -0.001 -0.000
 H          0.011 -0.000 -0.212   -0.008 -0.000  0.011    0.001 -0.000 -0.000
 H          0.194 -0.223  0.230   -0.002 -0.004 -0.001   -0.000  0.001 -0.000
 C         -0.031 -0.010 -0.001   -0.002 -0.000 -0.000    0.000 -0.000  0.000
 H         -0.056 -0.183  0.099   -0.004  0.010 -0.007    0.001 -0.000  0.000
 H          0.217  0.274  0.151   -0.003  0.002  0.003    0.000 -0.000 -0.000
 H          0.294  0.049 -0.234   -0.002 -0.002 -0.003   -0.000  0.000  0.000
 I          0.000 -0.000  0.000    0.000 -0.000  0.000   -0.005 -0.000 -0.001
 C         -0.000  0.000  0.000    0.010  0.000  0.002    0.758  0.000  0.130
 N         -0.000 -0.000 -0.000   -0.012 -0.000 -0.002   -0.601 -0.000 -0.104
 TransDip   0.082 -0.000  0.019   -0.939  0.000 -0.172    0.116  0.000  0.020

 Mode:                37                     38                     39
 Frequency:      3020.29                3020.55                3022.01
 Force Cnst:      5.5679                 5.5686                 5.5740
 Red. Mass:       1.0360                 1.0359                 1.0359
 IR Active:          YES                    YES                    YES
 IR Intens:        3.954                  3.207                  3.383
 Raman Active:       YES                    YES                    YES
               X      Y      Z        X      Y      Z        X      Y      Z
 H         -0.000 -0.001 -0.000   -0.001  0.000 -0.001   -0.001  0.000  0.001
 Si         0.000  0.001  0.000    0.000 -0.000  0.001    0.000 -0.000 -0.001
 C         -0.010 -0.028 -0.020   -0.010 -0.028 -0.018   -0.001 -0.004 -0.003
 H         -0.212 -0.002  0.338   -0.205 -0.003  0.326   -0.030  0.001  0.049
 H         -0.095  0.315 -0.210   -0.094  0.314 -0.208   -0.012  0.041 -0.027
 H          0.430  0.014  0.098    0.417  0.014  0.095    0.055  0.002  0.012
 C          0.000  0.001 -0.000    0.004 -0.000 -0.005   -0.029  0.000  0.041
 H          0.001 -0.005  0.004    0.018 -0.060  0.038   -0.134  0.448 -0.288
 H         -0.001  0.000 -0.000   -0.085  0.000 -0.015    0.604 -0.000  0.105
 H         -0.001 -0.004 -0.003    0.018  0.060  0.038   -0.134 -0.448 -0.289
 C          0.010 -0.028  0.019   -0.010  0.029 -0.019   -0.001  0.004 -0.003
 H         -0.423  0.014 -0.096    0.424 -0.014  0.097    0.055 -0.002  0.012
 H          0.209 -0.002 -0.333   -0.208  0.003  0.331   -0.030 -0.001  0.049
 H          0.094  0.310  0.207   -0.096 -0.319 -0.211   -0.012 -0.041 -0.027
 I          0.000 -0.000  0.000    0.000  0.000  0.000    0.000 -0.000  0.000
 C         -0.000  0.000  0.000   -0.000 -0.000  0.000   -0.000  0.000 -0.000
 N          0.000 -0.000  0.000   -0.000  0.000 -0.000   -0.000 -0.000  0.000
 TransDip  -0.000 -0.064 -0.000   -0.028  0.000 -0.050   -0.045  0.000  0.039

 Mode:                40                     41                     42
 Frequency:      3099.81                3100.52                3102.13
 Force Cnst:      6.2334                 6.2353                 6.2400
 Red. Mass:       1.1010                 1.1009                 1.1006
 IR Active:          YES                    YES                    YES
 IR Intens:        0.626                  5.911                 16.319
 Raman Active:       YES                    YES                    YES
               X      Y      Z        X      Y      Z        X      Y      Z
 H          0.000  0.002  0.000    0.005 -0.000  0.002    0.009 -0.000  0.001
 Si        -0.000  0.000  0.000   -0.001 -0.000 -0.000   -0.001 -0.000 -0.000
 C         -0.063  0.015  0.004   -0.055  0.018 -0.004   -0.029  0.005  0.005
 H          0.180 -0.003 -0.316    0.126 -0.001 -0.227    0.093 -0.002 -0.161
 H          0.047 -0.209  0.134    0.059 -0.241  0.153    0.014 -0.069  0.044
 H          0.532  0.031  0.131    0.479  0.030  0.116    0.238  0.015  0.060
 C          0.000 -0.005  0.000    0.035  0.000  0.021   -0.070 -0.000 -0.043
 H         -0.009  0.031 -0.021   -0.038  0.161 -0.104    0.075 -0.320  0.206
 H         -0.000 -0.001 -0.000   -0.339  0.000 -0.049    0.689 -0.000  0.098
 H          0.009  0.030  0.021   -0.038 -0.162 -0.104    0.076  0.321  0.207
 C          0.063  0.015 -0.004   -0.056 -0.018 -0.004   -0.029 -0.005  0.005
 H         -0.529  0.031 -0.130    0.481 -0.030  0.117    0.239 -0.015  0.060
 H         -0.179 -0.003  0.314    0.127  0.001 -0.228    0.093  0.002 -0.162
 H         -0.047 -0.208 -0.133    0.059  0.243  0.154    0.014  0.070  0.045
 I         -0.000  0.000  0.000   -0.000 -0.000  0.000   -0.000 -0.000 -0.000
 C          0.000 -0.000 -0.000    0.000  0.000 -0.000    0.000  0.000  0.000
 N         -0.000  0.000 -0.000   -0.000 -0.000 -0.000   -0.000 -0.000 -0.000
 TransDip  -0.000  0.025  0.000   -0.076 -0.000  0.015   -0.125 -0.000 -0.034

 Mode:                43                     44                     45
 Frequency:      3106.46                3106.70                3108.66
 Force Cnst:      6.2615                 6.2622                 6.2706
 Red. Mass:       1.1013                 1.1012                 1.1013
 IR Active:          YES                    YES                    YES
 IR Intens:        3.050                 11.407                  8.604
 Raman Active:       YES                    YES                    YES
               X      Y      Z        X      Y      Z        X      Y      Z
 H         -0.000  0.001 -0.000    0.000  0.000  0.002   -0.000  0.001 -0.000
 Si        -0.000 -0.000  0.000    0.000 -0.000 -0.001    0.000 -0.001  0.000
 C         -0.005 -0.036  0.058    0.010  0.031 -0.052    0.003 -0.005  0.005
 H          0.255 -0.015 -0.410   -0.244  0.014  0.394    0.013 -0.001 -0.020
 H         -0.134  0.460 -0.282    0.114 -0.387  0.237   -0.017  0.060 -0.037
 H         -0.056 -0.010 -0.002    0.010  0.007 -0.008   -0.031 -0.003 -0.006
 C          0.000  0.010  0.000   -0.008  0.001 -0.005    0.000 -0.092  0.000
 H          0.016 -0.056  0.039    0.011 -0.045  0.030   -0.161  0.560 -0.388
 H         -0.005  0.002 -0.001    0.077  0.000  0.011   -0.001 -0.018 -0.000
 H         -0.018 -0.061 -0.042    0.009  0.039  0.026    0.161  0.558  0.387
 C          0.004 -0.032 -0.052    0.011 -0.035 -0.058   -0.003 -0.005 -0.005
 H          0.054 -0.009  0.002    0.015 -0.008 -0.008    0.031 -0.003  0.006
 H         -0.226 -0.013  0.363   -0.272 -0.016  0.439   -0.013 -0.001  0.021
 H          0.120  0.413  0.253    0.128  0.437  0.267    0.017  0.060  0.037
 I          0.000 -0.000  0.000   -0.000 -0.000 -0.000    0.000 -0.000  0.000
 C         -0.000  0.000 -0.000    0.000  0.000  0.000   -0.000  0.000 -0.000
 N          0.000 -0.000  0.000   -0.000 -0.000 -0.000    0.000 -0.000  0.000
 TransDip  -0.001 -0.056  0.006    0.012 -0.003 -0.107    0.000 -0.094  0.000

 STANDARD THERMODYNAMIC QUANTITIES AT   298.15 K  AND     1.00 ATM

   This Molecule has  0 Imaginary Frequencies
   Zero point vibrational energy:       78.723 kcal/mol

   Atom    1 Element H  Has Mass    1.00783
   Atom    2 Element Si Has Mass   27.97693
   Atom    3 Element C  Has Mass   12.00000
   Atom    4 Element H  Has Mass    1.00783
   Atom    5 Element H  Has Mass    1.00783
   Atom    6 Element H  Has Mass    1.00783
   Atom    7 Element C  Has Mass   12.00000
   Atom    8 Element H  Has Mass    1.00783
   Atom    9 Element H  Has Mass    1.00783
   Atom   10 Element H  Has Mass    1.00783
   Atom   11 Element C  Has Mass   12.00000
   Atom   12 Element H  Has Mass    1.00783
   Atom   13 Element H  Has Mass    1.00783
   Atom   14 Element H  Has Mass    1.00783
   Atom   15 Element I  Has Mass  126.90440
   Atom   16 Element C  Has Mass   12.00000
   Atom   17 Element N  Has Mass   14.00307
   Molecular Mass:   226.962700 amu
   Principal axes and moments of inertia in amu*Bohr^2:
                             1           2           3
    Eigenvalues --      587.98703  5244.38830  5244.80926
          X              -0.98583    -0.00004    -0.16776
          Y               0.00006    -1.00000    -0.00009
          Z              -0.16776    -0.00010     0.98583
   Rotational Symmetry Number is   1
   The Molecule is an Asymmetric Top
   Translational Enthalpy:        0.889 kcal/mol
   Rotational Enthalpy:           0.889 kcal/mol
   Vibrational Enthalpy:         85.068 kcal/mol
   gas constant (RT):             0.592 kcal/mol
   Translational Entropy:        42.161  cal/mol.K
   Rotational Entropy:           31.159  cal/mol.K
   Vibrational Entropy:          49.473  cal/mol.K

   Total Enthalpy:               87.438 kcal/mol
   Total Entropy:               122.793  cal/mol.K

   Quasi-RRHO corrections using alpha = 4, and omega = 100 cm^-1
   QRRHO-Vib. Enthalpy:          83.404 kcal/mol
   QRRHO-Vib. Entropy:           40.943  cal/mol.K
   QRRHO-Total Enthalpy:         85.774 kcal/mol
   QRRHO-Total Entropy:         114.263  cal/mol.K
 Total job time:  1626.24s(wall), 25801.78s(cpu) 
 Thu Nov 14 03:59:00 2024

        *************************************************************
        *                                                           *
        *  Thank you very much for using Q-Chem.  Have a nice day.  *
        *                                                           *
        *************************************************************


