
Running Job 1 of 1 Me3SiH_HCN_eda2_op1_B3LYP_tzvppd.in
qchem Me3SiH_HCN_eda2_op1_B3LYP_tzvppd.in_3866339.0 /data/scratch/Me3SiH_HCN_eda2_op1_B3LYP_tzvppd20241115110637/ 1
/opt/qchem/6.2.0/exe/qcprog.exe_s Me3SiH_HCN_eda2_op1_B3LYP_tzvppd.in_3866339.0 /data/scratch/Me3SiH_HCN_eda2_op1_B3LYP_tzvppd20241115110637/
                  Welcome to Q-Chem
     A Quantum Leap Into The Future Of Chemistry


 Q-Chem 6.2, Q-Chem, Inc., Pleasanton, CA (2024)

 E. Epifanovsky,  A. T. B. Gilbert,  Xintian Feng,  Joonho Lee,  Yuezhi Mao,  
 N. Mardirossian,  P. Pokhilko,  A. White,  M. Wormit,  M. P. Coons,  
 A. L. Dempwolff,  Zhengting Gan,  D. Hait,  P. R. Horn,  L. D. Jacobson,  
 I. Kaliman,  J. Kussmann,  A. W. Lange,  Ka Un Lao,  D. S. Levine,  Jie Liu,  
 S. C. McKenzie,  A. F. Morrison,  K. D. Nanda,  F. Plasser,  D. R. Rehn,  
 M. L. Vidal,  Zhi-Qiang You,  Ying Zhu,  Huseyin Aksu,  B. Alam,  
 B. Albrecht,  A. Aldossary,  E. Alguire,  J. H. Andersen,  
 J. E. Arias-Martinez,  V. Athavale,  D. Barton,  K. Begam,  A. Behn,  
 N. Bellonzi,  Y. A. Bernard,  E. J. Berquist,  H. Burton,  A. Carreras,  
 K. Carter-Fenk,  Mathew Chow,  Romit Chakraborty,  Chandrima Chakravarty,  
 Junhan Chen,  A. D. Chien,  K. D. Closser,  V. Cofer-Shabica,  L. Cunha,  
 S. Dasgupta,  Jia Deng,  Joseph Dickinson,  M. de Wergifosse,  
 M. Diedenhofen,  Hainam Do,  Wenjie Dou,  S. Ehlert,  Po-Tung Fang,  
 S. Fatehi,  Qingguo Feng,  Jonathan Fetherolf,  T. Friedhoff,  
 Thomas Froitzheim,  Sarai Folkestad,  B. Ganoe,  J. Gayvert,  Qinghui Ge,  
 G. Gidofalvi,  M. Gimferrer,  M. Goldey,  Montgomery Gray,  J. Gomes,  
 C. Gonzalez-Espinoza,  S. Gulania,  A. Gunina,  J. A. Gyamfi,  
 M. W. D. Hanson-Heine,  P. H. P. Harbach,  A. W. Hauser,  M. F. Herbst,  
 M. Hernandez Vera,  M. Hodecker,  Z. C. Holden,  S. Houck,  Xunkun Huang,  
 Kerwin Hui,  B. C. Huynh,  K. Ikeda,  M. Ivanov,  Nayanthara K. Jayadev,  
 Hyunjun Ji,  Zuxin Jin,  Hanjie Jiang,  Subrata Jana,  B. Kaduk,  
 S. Kaehler,  R. Kang,  K. Khistyaev,  Jaehoon Kim,  Yongbin Kim,  
 P. Klunzinger,  Z. Koczor-Benda,  Joong Hoon Koh,  D. Kosenkov,  
 Saikiran Kotaru,  L. Koulias,  T. Kowalczyk,  C. M. Krauter,  K. Kue,  
 A. Kunitsa,  T. Kus,  A. Landau,  K. V. Lawler,  D. Lefrancois,  S. Lehtola,  
 Rain Li,  Shaozhi Li,  Tao E. Li,  Yi-Pei Li,  Jiashu Liang,  M. Liebenthal,  
 Hung-Hsuan Lin,  You-Sheng Lin,  Fenglai Liu,  Kuan-Yu Liu,  Xiao Liu,  
 M. Loipersberger,  A. Luenser,  C. Malbon,  Aniket Mandal,  Manisha,  
 A. Manjanath,  P. Manohar,  E. Mansoor,  S. F. Manzer,  Shan-Ping Mao,  
 A. V. Marenich,  T. Markovich,  S. Mason,  F. Matz,  S. A. Maurer,  
 Samuel May,  Alexandra McIsaac,  P. F. McLaughlin,  M. F. S. J. Menger,  
 J.-M. Mewes,  S. A. Mewes,  P. Morgante,  Mohammad Mostafanejad,  
 Madhubani Mukherjee,  J. W. Mullinax,  Quyen Nguyen,  Avik Kumar Ojha,  
 K. J. Oosterbaan,  Eno Paenurk,  Xiaoliang Pan,  G. Paran,  V. Parravicini,  
 Alexander C. Paul,  Suranjan K. Paul,  F. Pavosevic,  Zheng Pei,  S. Prager,  
 E. I. Proynov,  E. Ramos,  B. Rana,  A. E. Rask,  A. Rettig,  R. M. Richard,  
 F. Rob,  E. Rossomme,  T. Scheele,  M. Scheurer,  M. Schneider,  
 P. E. Schneider,  Tim K. Schramm,  N. Sergueev,  S. M. Sharada,  
 Hengyuan Shen,  W. Skomorowski,  D. W. Small,  C. J. Stein,  
 Alistair J. Sterling,  Yingli Su,  Yu-Chuan Su,  E. J. Sundstrom,  
 J. Talbot,  Zhen Tao,  J. Thirman,  Hung-Yi Tsai,  T. Tsuchimochi,  
 N. M. Tubman,  C. Utku,  S. P. Veccham,  O. Vydrov,  Rahel Weiss,  
 J. Wenzel,  Jonathan Wong,  J. Witte,  H. Wu,  Yanze Wu,  A. Yamada,  
 Chou-Hsun Yang,  Kun Yao,  S. Yeganeh,  S. R. Yost,  Qi Yu,  A. Zech,  
 F. Zeller,  Chongxiao Zhao,  Igor Ying Zhang,  Xing Zhang,  Yu Zhang,  
 D. Zuev,  A. Aspuru-Guzik,  A. T. Bell,  N. A. Besley,  K. B. Bravaya,  
 B. R. Brooks,  D. Casanova,  Jeng-Da Chai,  Hsing-Ta Chen,  S. Coriani,  
 C. J. Cramer,  A. E. DePrince, III,  R. A. DiStasio Jr.,  A. Dreuw,  
 B. D. Dunietz,  T. R. Furlani,  W. A. Goddard III,  S. Grimme,  
 S. Hammes-Schiffer,  T. Head-Gordon,  W. J. Hehre,  Chao-Ping Hsu,  
 T.-C. Jagau,  Yousung Jung,  A. Klamt,  Jing Kong,  D. S. Lambrecht,  
 Xiangyuan Li,  WanZhen Liang,  N. J. Mayhall,  C. W. McCurdy,  J. B. Neaton,  
 T. Neudecker,  C. Ochsenfeld,  J. A. Parkhill,  R. Peverati,  
 V. A. Rassolov,  Haisheng Ren,  Yihan Shao,  L. V. Slipchenko,  
 R. P. Steele,  J. E. Subotnik,  A. J. W. Thom,  A. Tkatchenko,  
 D. G. Truhlar,  T. Van Voorhis,  Fan Wang,  T. A. Wesolowski,  K. B. Whaley,  
 H. L. Woodcock III,  P. M. Zimmerman,  S. Faraji,  P. M. W. Gill,  
 M. Head-Gordon,  J. M. Herbert,  A. I. Krylov

 Contributors to earlier versions of Q-Chem not listed above: 
 R. D. Adamson,  B. Austin,  R. Baer,  J. Baker,  G. J. O. Beran,  
 K. Brandhorst,  S. T. Brown,  E. F. C. Byrd,  Arup K. Chakraborty,  
 G. K. L. Chan,  Chun-Min Chang,  Yunqing Chen,  C.-L. Cheng,  
 Siu Hung Chien,  D. M. Chipman,  D. L. Crittenden,  H. Dachsel,  
 R. J. Doerksen,  A. D. Dutoi,  R. G. Edgar,  J. Fosso-Tande,  
 L. Fusti-Molnar,  D. Ghosh,  A. Ghysels,  A. Golubeva-Zadorozhnaya,  
 J. Gonthier,  M. S. Gordon,  S. R. Gwaltney,  G. Hawkins,  J. E. Herr,  
 A. Heyden,  S. Hirata,  E. G. Hohenstein,  G. Kedziora,  F. J. Keil,  
 C. Kelley,  Jihan Kim,  R. A. King,  R. Z. Khaliullin,  P. P. Korambath,  
 W. Kurlancheek,  A. Laurent,  A. M. Lee,  M. S. Lee,  S. V. Levchenko,  
 Ching Yeh Lin,  D. Liotard,  E. Livshits,  R. C. Lochan,  I. Lotan,  
 L. A. Martinez-Martinez,  P. E. Maslen,  N. Nair,  D. P. O'Neill,  
 D. Neuhauser,  E. Neuscamman,  C. M. Oana,  R. Olivares-Amaya,  R. Olson,  
 T. M. Perrine,  B. Peters,  P. A. Pieniazek,  A. Prociuk,  Y. M. Rhee,  
 J. Ritchie,  M. A. Rohrdanz,  E. Rosta,  N. J. Russ,  H. F. Schaefer III,  
 M. W. Schmidt,  N. E. Schultz,  S. Sharma,  N. Shenvi,  C. D. Sherrill,  
 A. C. Simmonett,  A. Sodt,  T. Stein,  D. Stuck,  K. S. Thanthiriwatte,  
 V. Vanovschi,  L. Vogt,  Tao Wang,  A. Warshel,  M. A. Watson,  
 C. F. Williams,  Q. Wu,  X. Xu,  Jun Yang,  W. Zhang,  Yan Zhao

   Please cite Q-Chem as follows:
  "Software for the frontiers of quantum chemistry:
   An overview of developments in the Q-Chem 5 package"
   J. Chem. Phys. 155, 084801 (2021)
   https://doi.org/10.1063/5.0055522 (open access)

 Q-Chem 6.2.0 for Intel X86 EM64T Linux

 Parts of Q-Chem use Armadillo 9.900.5 (Nocturnal Misbehaviour).
 http://arma.sourceforge.net/

 Q-Chem begins on Fri Nov 15 11:06:39 2024  

 Host: 
0

     Scratch files written to /data/scratch/Me3SiH_HCN_eda2_op1_B3LYP_tzvppd20241115110637//
 May224 |scratch|qcdevops|jenkins|workspace|build_RNUM -1
 Processing $rem in /opt/qchem/6.2.0/config/preferences:
 Processing $rem in /home/ymao/.qchemrc:

 Q-Chem warning in module libgen/rem_setup.C, line 3379:

 Neither GIA nor STOLL is specified by user. Use STOLL as the default


 Checking the input file for inconsistencies... 	...done.

--------------------------------------------------------------
User input:
--------------------------------------------------------------
$molecule
0 1
--
0 1
H    -0.57596   -0.00011   0.51740
Si   0.72779    0.00006    -0.22924
C    0.78192    1.55631    -1.29692
H    -0.04843   1.57566    -2.01892
H    0.71094    2.46649    -0.68263
H    1.72185    1.61098    -1.86811
C    2.12383    0.00014    1.04191
H    2.07679    0.88875    1.68921
H    3.10693    0.00028    0.54658
H    2.07698    -0.88855   1.68913
C    0.78233    -1.55610   -1.29704
H    1.72224    -1.61041   -1.86828
H    0.71165    -2.46636   -0.68283
H    -0.04805   -1.57567   -2.01900
--
0 1
N    -4.30425   -0.00072   2.52202
C    -3.28473   -0.00054   1.98047
H    -2.33153   -0.00038   1.47168
$end

$rem
JOBTYPE  EDA
EDA2  1
METHOD  B3LYP
BASIS  DEF2-TZVPPD
SYMMETRY  FALSE
SYM_IGNORE  TRUE
MEM_TOTAL  8000
MEM_STATIC  2000
BASIS_LIN_DEP_THRESH  6
THRESH  14
SCF_CONVERGENCE  8
GEN_SCFMAN  TRUE
MAXSCF  200
FD_MAT_VEC_PROD  FALSE
XC_GRID  000099000590
NL_GRID  1
SCF_GUESS  FRAGMO
FRZ_ORTHO_DECOMP  -1
EDA_CLS_DISP  TRUE
$end
--------------------------------------------------------------
 ----------------------------------------------------------------
             Standard Nuclear Orientation (Angstroms)
    I     Atom           X                Y                Z
 ----------------------------------------------------------------
    1      H      -0.5759600000    -0.0001100000     0.5174000000
    2      Si      0.7277900000     0.0000600000    -0.2292400000
    3      C       0.7819200000     1.5563100000    -1.2969200000
    4      H      -0.0484300000     1.5756600000    -2.0189200000
    5      H       0.7109400000     2.4664900000    -0.6826300000
    6      H       1.7218500000     1.6109800000    -1.8681100000
    7      C       2.1238300000     0.0001400000     1.0419100000
    8      H       2.0767900000     0.8887500000     1.6892100000
    9      H       3.1069300000     0.0002800000     0.5465800000
   10      H       2.0769800000    -0.8885500000     1.6891300000
   11      C       0.7823300000    -1.5561000000    -1.2970400000
   12      H       1.7222400000    -1.6104100000    -1.8682800000
   13      H       0.7116500000    -2.4663600000    -0.6828300000
   14      H      -0.0480500000    -1.5756700000    -2.0190000000
   15      N      -4.3042500000    -0.0007200000     2.5220200000
   16      C      -3.2847300000    -0.0005400000     1.9804700000
   17      H      -2.3315300000    -0.0003800000     1.4716800000
 ----------------------------------------------------------------
 Nuclear Repulsion Energy =         254.37410797 hartrees
 There are       28 alpha and       28 beta electrons
 Requested basis set is def2-TZVPPD
 There are 158 shells and 420 basis functions

 Total QAlloc Memory Limit   8000 MB
 Mega-Array Size      1956 MB
 MEM_STATIC part      2000 MB

 A cutoff of  1.0D-14 yielded  11086 shell pairs
 There are     77228 function pairs (     95122 Cartesian)
 Smallest overlap matrix eigenvalue = 2.94E-06

 Scale SEOQF with 1.000000e-01/1.000000e-01/1.000000e-01

 Standard Electronic Orientation quadrupole field applied
 Nucleus-field energy     =     0.0000000005 hartrees

 -----------------------------------------------------------------------
  General SCF calculation program by
  Eric Jon Sundstrom, Paul Horn, Yuezhi Mao, Dmitri Zuev, Alec White,
  David Stuck, Shaama M.S., Shane Yost, Joonho Lee, David Small,
  Daniel Levine, Susi Lehtola, Hugh Burton, Evgeny Epifanovsky,
  Bang C. Huynh
 -----------------------------------------------------------------------
================================================================
                 ALMO-EDA with the EDA2 driver                  
================================================================
 The second-generation ALMO-EDA (for DFT):                      
 P. R. Horn, Y. Mao and M. Head-Gordon, PCCP, 18, 23067 (2016)  
 Y. Mao et al. Annu. Rev. Phys. Chem. 72, 641 (2021)            
 Decomposition of the frozen energy:                            
 P. R. Horn, Y. Mao and M. Head-Gordon, JCP, 144, 114107 (2016) 
 FERF model for polarization:                                   
 P. R. Horn and M. Head-Gordon, JCP, 143, 114111 (2015)         
================================================================
 Using eda2 option set 1
 Option set summary: Frozen orbital wavefunction, initial wavefunction decomposition, and nDQ polarization.
--------------------------------
Printing EDA Options
--------------------------------
eda_child_super_basis      0
fragmo_guess_mode          0
child_mp                   1
child_mp_orders            232
cls_elec                   1
cls_disp                   1
scfmi_mode                 1
scfmi_occs                 0
scfmi_virts                0
frz_relax                  0
frz_relax_method           0
dc_pen_start               0
dc_pen_conv                0
dc_pen_increment           0
dc_pen_steps               0
dc_pen_thresh_factor       0
dc_pen_pre_newton_thresh   0
frz_ortho_decomp           0
frz_ortho_decomp_conv      6
plot_mo_ortho_frz          0
frgm_method                2
scfmi_freeze_ss            0
separate_rehyb             0
plot_diff_den              0
eda_nocv                   0
eda_vct_relax              1
disp_free_x                0
disp_free_c                0
eda_bsse                   0
eda_pct_a                  0
eda_covp                   0
eda_vct_a                  0
--------------------------------
 Attempting to make child job directory: /data/scratch/Me3SiH_HCN_eda2_op1_B3LYP_tzvppd20241115110637//Frg1/
 Attempting to make child job directory: /data/scratch/Me3SiH_HCN_eda2_op1_B3LYP_tzvppd20241115110637//Frg2/
 Creating input file /data/scratch/Me3SiH_HCN_eda2_op1_B3LYP_tzvppd20241115110637/Frg1.input
 using default PutDataFrgm: nothing
 calling putenv with: QCSCRATCH=/data/scratch/Me3SiH_HCN_eda2_op1_B3LYP_tzvppd20241115110637/ 
 Spawning Job For Fragment 0
 Done Job For Fragment 0
 calling putenv with: QCSCRATCH=/data/scratch 
 calling putenv with: QCTHREADS=8 
 Creating input file /data/scratch/Me3SiH_HCN_eda2_op1_B3LYP_tzvppd20241115110637/Frg2.input
 using default PutDataFrgm: nothing
 calling putenv with: QCSCRATCH=/data/scratch/Me3SiH_HCN_eda2_op1_B3LYP_tzvppd20241115110637/ 
 Spawning Job For Fragment 1
 Done Job For Fragment 1
 calling putenv with: QCSCRATCH=/data/scratch 
 calling putenv with: QCTHREADS=8 
Doing General SCFMI
 Exchange:     0.2000 Hartree-Fock + 0.0800 Slater + 0.7200 B88
 Correlation:  0.1900 VWN1RPA + 0.8100 LYP
 Using Euler-Maclaurin-Lebedev (99,590) quadrature formula
performing fock build before subrot guess so that all methods have access
Printing subrot_rss_gen Method Specification:
Occupied Subspace Method is 0
Virtual Subspace Method is 0
Energy of the unrelaxed supersystem initial determinant -503.416050762870
write pseudocanon occs and virts to disk
write pseudocanon orbital energies to disk
 Exchange:     0.2000 Hartree-Fock + 0.0800 Slater + 0.7200 B88
 Correlation:  0.1900 VWN1RPA + 0.8100 LYP
 Using Euler-Maclaurin-Lebedev (99,590) quadrature formula
 Hartree-Fock
Doing General SCFMI
 Exchange:     0.2000 Hartree-Fock + 0.0800 Slater + 0.7200 B88
 Correlation:  0.1900 VWN1RPA + 0.8100 LYP
 Using Euler-Maclaurin-Lebedev (99,590) quadrature formula
performing fock build at end of subrot_r(subrot) constructor so that all methods have access
<S^2> of initial wavefunction before polarization iterations 0.0000000000
Beginning iterations for the determination of the polarized wavefunction
Energy prior to optimization (guess energy) = -503.416050762870
Begin Timing: Total SCF Calculation
begin iterations for algorithm: DIIS         
the SCF tolerance is set to 1.00e-08
    1    -503.4160507629      1.17e-04     00000 
    2    -503.4168636185      5.62e-05     00000 
    3    -503.4169105776      5.07e-05     00000 
    4    -503.4169461126      2.46e-05     00000 
    5    -503.4169575660      5.46e-06     00000 
    6    -503.4169581973      1.77e-06     00000 
    7    -503.4169582636      5.61e-07     00000 
    8    -503.4169582707      1.27e-07     00000 
    9    -503.4169582709      3.42e-08     00000 
   10    -503.4169582710      1.50e-08     00000 
   11    -503.4169582710      4.85e-09     00000 Convergence criterion met
write pseudocanon occs and virts to disk
write pseudocanon orbital energies to disk
Timing for Total SCF: 186.00s (wall), 1487.29s (cpu)
<S^2> of polarized wavefunction after polarization iterations 0.0000000000
relaxing scfmi constraint to allow all rotations in the entire AO span
Doing General SCFMI
 Exchange:     0.2000 Hartree-Fock + 0.0800 Slater + 0.7200 B88
 Correlation:  0.1900 VWN1RPA + 0.8100 LYP
 Using Euler-Maclaurin-Lebedev (99,590) quadrature formula
performing fock build at end of subrot_r(subrot) constructor so that all methods have access
<S^2> of polarized wavefunction before ct-allowed iterations 0.0000000000
Beginning iterations for the determination of the CT-Allowed wavefunction
Energy prior to optimization (guess energy) = -503.416958270955
Begin Timing: Total SCF Calculation
begin iterations for algorithm: DIIS         
the SCF tolerance is set to 1.00e-08
    1    -503.4169582710      1.18e-04     00000 
    2    -503.4186336723      7.36e-06     00000 
    3    -503.4186404914      6.04e-06     00000 
    4    -503.4186429356      3.88e-06     00000 
    5    -503.4186438531      1.53e-06     00000 
    6    -503.4186440360      2.44e-07     00000 
    7    -503.4186440408      6.97e-08     00000 
    8    -503.4186440412      5.63e-09     00000 Convergence criterion met
write pseudocanon occs and virts to disk
write pseudocanon orbital energies to disk
Timing for Total SCF: 131.00s (wall), 1054.02s (cpu)
<S^2> of ct_allowed wavefunction after ct-allowed iterations 0.0000000000

================================
        Results of EDA2         
================================
Basic EDA Quantities
--------------------
Fragment Energies (Ha):
1 -409.9516261925
2  -93.4646618636
--------------------
  E_prp (kJ/mol) = 0.0000
  E_frz (kJ/mol) = 0.6230
  E_pol (kJ/mol) = -2.3827
  E_vct (kJ/mol) = -4.4260
  E_int (kJ/mol) = -6.1857
--------------------


Decomposition of frozen interaction energy
--------------------
  --------------------
  Classical Frozen Decomposition:
  --------------------
     E_cls_elec  (CLS ELEC)  (kJ/mol) = -8.4641
     E_mod_pauli (MOD PAULI) (kJ/mol) = 10.8495 (FRZ - CLS ELEC - CLS DISP)
     E_cls_disp  (CLS DISP)  (kJ/mol) = -1.7624
  --------------------
--------------------

Simplified EDA Summary (kJ/mol)
--------------------
 PREPARATION      0.0000
 FROZEN           0.6230 (ELEC + PAULI + DISP)
[ELEC + PAULI = 2.3854, DISP = -1.7624]
 POLARIZATION    -2.3827
 CHARGE TRANSFER -4.4260
 TOTAL           -6.1857     (PRP + FRZ + POL + CT)
--------------------
 
 --------------------------------------------------------------
 
                    Orbital Energies (a.u.)
 --------------------------------------------------------------
 
 Alpha MOs
 -- Occupied --
-66.1079 -14.3365 -10.2220 -10.1641 -10.1641 -10.1641  -5.2697  -3.6283
 -3.6272  -3.6272  -0.9198  -0.7259  -0.6915  -0.6914  -0.6004  -0.4923
 -0.4317  -0.4213  -0.4213  -0.4053  -0.4053  -0.3959  -0.3843  -0.3623
 -0.3623  -0.3303  -0.3201  -0.3201
 -- Virtual --
 -0.0095  -0.0072  -0.0071   0.0169   0.0169   0.0184   0.0367   0.0523
  0.0578   0.0578   0.0631   0.0631   0.0769   0.0843   0.0843   0.0997
  0.1025   0.1027   0.1041   0.1100   0.1185   0.1187   0.1366   0.1461
  0.1464   0.1682   0.1683   0.1815   0.1817   0.1853   0.1868   0.1999
  0.2068   0.2069   0.2097   0.2154   0.2156   0.2422   0.2467   0.2513
  0.2514   0.2539   0.2544   0.2654   0.2693   0.2693   0.2761   0.2763
  0.2821   0.2935   0.3007   0.3114   0.3118   0.3136   0.3137   0.3267
  0.3270   0.3275   0.3376   0.3569   0.3570   0.3619   0.3874   0.3875
  0.4020   0.4054   0.4058   0.4058   0.4087   0.4095   0.4269   0.4279
  0.4383   0.4385   0.4412   0.4437   0.4440   0.4476   0.4567   0.4723
  0.4733   0.4927   0.4931   0.4953   0.5167   0.5239   0.5340   0.5342
  0.5344   0.5517   0.5561   0.5564   0.5654   0.5666   0.5871   0.6219
  0.6220   0.6238   0.6274   0.6524   0.6527   0.6695   0.6758   0.6761
  0.6764   0.6828   0.6838   0.7094   0.7103   0.7116   0.7164   0.7199
  0.7199   0.7237   0.7243   0.7251   0.7737   0.7752   0.7779   0.7922
  0.8104   0.8113   0.8339   0.8343   0.8586   0.8588   0.8653   0.8861
  0.8928   0.8935   0.9126   0.9373   0.9379   0.9408   0.9913   1.0137
  1.0332   1.0334   1.0437   1.0452   1.0529   1.0540   1.1143   1.1178
  1.1712   1.1714   1.1723   1.1892   1.1897   1.1904   1.2040   1.2073
  1.2095   1.2418   1.2450   1.2469   1.3168   1.3206   1.3208   1.3432
  1.3434   1.3516   1.3598   1.3601   1.3786   1.3821   1.3823   1.3979
  1.3980   1.4312   1.4594   1.4596   1.5231   1.5231   1.5255   1.5403
  1.5540   1.5827   1.5842   1.5871   1.5895   1.6078   1.6093   1.6163
  1.6236   1.6551   1.6553   1.6925   1.7235   1.7236   1.7360   1.7366
  1.7379   1.7442   1.7795   1.8073   1.8092   1.8438   1.8447   1.8534
  1.8872   1.8877   1.9090   1.9950   2.0226   2.0271   2.0273   2.1678
  2.2171   2.2172   2.2942   2.3231   2.4491   2.4502   2.4978   2.4990
  2.5451   2.5661   2.6355   2.6355   2.6365   2.6431   2.6431   2.7445
  2.7653   2.7655   2.7655   2.8062   2.8065   2.8249   2.8282   2.8293
  2.8595   2.8596   2.8713   2.8873   2.8874   2.9099   2.9104   2.9192
  2.9199   2.9270   2.9628   2.9639   2.9955   2.9960   3.0436   3.0440
  3.0555   3.0556   3.0601   3.0855   3.1215   3.1222   3.1538   3.1925
  3.1932   3.2189   3.2189   3.2310   3.2876   3.3137   3.3137   3.3421
  3.3503   3.3745   3.3748   3.4125   3.4125   3.4622   3.4631   3.4671
  3.4999   3.5003   3.5110   3.5388   3.5421   3.5422   3.5449   3.5450
  3.5754   3.5755   3.5807   3.6214   3.6216   3.6548   3.6952   3.6960
  3.6974   3.7157   3.7478   3.7492   3.8811   3.9169   3.9252   3.9262
  3.9574   3.9574   3.9698   3.9700   3.9728   4.0052   4.0054   4.0262
  4.0377   4.0385   4.0968   4.1012   4.1027   4.1320   4.1334   4.1533
  4.1684   4.1691   4.1712   4.2365   4.2375   4.2804   4.2806   4.2843
  4.2971   4.2974   4.3148   4.3505   4.3509   4.3512   4.5179   4.5520
  4.5522   4.5839   4.5861   4.5863   4.5927   4.5933   4.6000   4.6004
  4.6008   4.6306   4.7014   4.7028   4.7253   4.7253   4.8261   4.8448
  4.8449   5.0171   5.0344   5.0346   5.0411   5.0644   5.0653   5.0954
  5.1122   5.1123   5.1413   5.1583   5.1606   5.1707   5.1709   5.2247
  5.2460   5.2461   5.3226   5.3230   5.3289   5.3292   5.3307   5.3746
  5.3752   5.4082   5.4502   5.4504   5.5427   5.6494   5.6606   5.6610
  5.6832   5.6852   5.6855   5.8503   5.8511   6.2332   6.7407   6.7414
  6.7879   7.0177  12.2478  23.3748  23.4972  23.5026  23.5041  32.4023
 --------------------------------------------------------------
 
          Ground-State Mulliken Net Atomic Charges

     Atom                 Charge (a.u.)
  ----------------------------------------
      1 H                    -0.302219
      2 Si                    0.363222
      3 C                    -0.421508
      4 H                     0.102154
      5 H                     0.102394
      6 H                     0.143125
      7 C                    -0.421667
      8 H                     0.102060
      9 H                     0.142621
     10 H                     0.102054
     11 C                    -0.421519
     12 H                     0.143127
     13 H                     0.102395
     14 H                     0.102156
     15 N                    -0.138077
     16 C                     0.023981
     17 H                     0.275701
  ----------------------------------------
  Sum of atomic charges =     0.000000

 -----------------------------------------------------------------
                    Cartesian Multipole Moments
 -----------------------------------------------------------------
    Charge (ESU x 10^10)
                -0.0000
    Dipole Moment (Debye)
         X       3.8716      Y       0.0007      Z      -2.0968
       Tot       4.4030
    Quadrupole Moments (Debye-Ang)
        XX     -66.6567     XY      -0.0032     YY     -47.2927
        XZ      11.1461     YZ       0.0019     ZZ     -53.6857
    Octopole Moments (Debye-Ang^2)
       XXX     131.0049    XXY       0.0224    XYY       8.0134
       YYY       0.0117    XXZ     -76.4823    XYZ      -0.0113
       YYZ      -8.3289    XZZ      42.2398    YZZ       0.0102
       ZZZ     -57.1257
    Hexadecapole Moments (Debye-Ang^3)
      XXXX   -1938.4716   XXXY      -0.1669   XXYY    -293.2997
      XYYY      -0.0828   YYYY    -327.9011   XXXZ     591.0997
      XXYZ       0.0641   XYYZ     105.6364   YYYZ       0.0509
      XXZZ    -521.4405   XYZZ      -0.0554   YYZZ    -169.8841
      XZZZ     405.3141   YZZZ       0.0658   ZZZZ    -730.7442
 -----------------------------------------------------------------
 Total job time:  1177.01s(wall), 3320.75s(cpu) 
 Fri Nov 15 11:26:16 2024

        *************************************************************
        *                                                           *
        *  Thank you very much for using Q-Chem.  Have a nice day.  *
        *                                                           *
        *************************************************************


