
Running Job 1 of 1 Me3SiH_COF2_eda2_op1_B3LYP_tzvppd.in
qchem Me3SiH_COF2_eda2_op1_B3LYP_tzvppd.in_3866420.0 /data/scratch/Me3SiH_COF2_eda2_op1_B3LYP_tzvppd20241115110637/ 1
/opt/qchem/6.2.0/exe/qcprog.exe_s Me3SiH_COF2_eda2_op1_B3LYP_tzvppd.in_3866420.0 /data/scratch/Me3SiH_COF2_eda2_op1_B3LYP_tzvppd20241115110637/
                  Welcome to Q-Chem
     A Quantum Leap Into The Future Of Chemistry


 Q-Chem 6.2, Q-Chem, Inc., Pleasanton, CA (2024)

 E. Epifanovsky,  A. T. B. Gilbert,  Xintian Feng,  Joonho Lee,  Yuezhi Mao,  
 N. Mardirossian,  P. Pokhilko,  A. White,  M. Wormit,  M. P. Coons,  
 A. L. Dempwolff,  Zhengting Gan,  D. Hait,  P. R. Horn,  L. D. Jacobson,  
 I. Kaliman,  J. Kussmann,  A. W. Lange,  Ka Un Lao,  D. S. Levine,  Jie Liu,  
 S. C. McKenzie,  A. F. Morrison,  K. D. Nanda,  F. Plasser,  D. R. Rehn,  
 M. L. Vidal,  Zhi-Qiang You,  Ying Zhu,  Huseyin Aksu,  B. Alam,  
 B. Albrecht,  A. Aldossary,  E. Alguire,  J. H. Andersen,  
 J. E. Arias-Martinez,  V. Athavale,  D. Barton,  K. Begam,  A. Behn,  
 N. Bellonzi,  Y. A. Bernard,  E. J. Berquist,  H. Burton,  A. Carreras,  
 K. Carter-Fenk,  Mathew Chow,  Romit Chakraborty,  Chandrima Chakravarty,  
 Junhan Chen,  A. D. Chien,  K. D. Closser,  V. Cofer-Shabica,  L. Cunha,  
 S. Dasgupta,  Jia Deng,  Joseph Dickinson,  M. de Wergifosse,  
 M. Diedenhofen,  Hainam Do,  Wenjie Dou,  S. Ehlert,  Po-Tung Fang,  
 S. Fatehi,  Qingguo Feng,  Jonathan Fetherolf,  T. Friedhoff,  
 Thomas Froitzheim,  Sarai Folkestad,  B. Ganoe,  J. Gayvert,  Qinghui Ge,  
 G. Gidofalvi,  M. Gimferrer,  M. Goldey,  Montgomery Gray,  J. Gomes,  
 C. Gonzalez-Espinoza,  S. Gulania,  A. Gunina,  J. A. Gyamfi,  
 M. W. D. Hanson-Heine,  P. H. P. Harbach,  A. W. Hauser,  M. F. Herbst,  
 M. Hernandez Vera,  M. Hodecker,  Z. C. Holden,  S. Houck,  Xunkun Huang,  
 Kerwin Hui,  B. C. Huynh,  K. Ikeda,  M. Ivanov,  Nayanthara K. Jayadev,  
 Hyunjun Ji,  Zuxin Jin,  Hanjie Jiang,  Subrata Jana,  B. Kaduk,  
 S. Kaehler,  R. Kang,  K. Khistyaev,  Jaehoon Kim,  Yongbin Kim,  
 P. Klunzinger,  Z. Koczor-Benda,  Joong Hoon Koh,  D. Kosenkov,  
 Saikiran Kotaru,  L. Koulias,  T. Kowalczyk,  C. M. Krauter,  K. Kue,  
 A. Kunitsa,  T. Kus,  A. Landau,  K. V. Lawler,  D. Lefrancois,  S. Lehtola,  
 Rain Li,  Shaozhi Li,  Tao E. Li,  Yi-Pei Li,  Jiashu Liang,  M. Liebenthal,  
 Hung-Hsuan Lin,  You-Sheng Lin,  Fenglai Liu,  Kuan-Yu Liu,  Xiao Liu,  
 M. Loipersberger,  A. Luenser,  C. Malbon,  Aniket Mandal,  Manisha,  
 A. Manjanath,  P. Manohar,  E. Mansoor,  S. F. Manzer,  Shan-Ping Mao,  
 A. V. Marenich,  T. Markovich,  S. Mason,  F. Matz,  S. A. Maurer,  
 Samuel May,  Alexandra McIsaac,  P. F. McLaughlin,  M. F. S. J. Menger,  
 J.-M. Mewes,  S. A. Mewes,  P. Morgante,  Mohammad Mostafanejad,  
 Madhubani Mukherjee,  J. W. Mullinax,  Quyen Nguyen,  Avik Kumar Ojha,  
 K. J. Oosterbaan,  Eno Paenurk,  Xiaoliang Pan,  G. Paran,  V. Parravicini,  
 Alexander C. Paul,  Suranjan K. Paul,  F. Pavosevic,  Zheng Pei,  S. Prager,  
 E. I. Proynov,  E. Ramos,  B. Rana,  A. E. Rask,  A. Rettig,  R. M. Richard,  
 F. Rob,  E. Rossomme,  T. Scheele,  M. Scheurer,  M. Schneider,  
 P. E. Schneider,  Tim K. Schramm,  N. Sergueev,  S. M. Sharada,  
 Hengyuan Shen,  W. Skomorowski,  D. W. Small,  C. J. Stein,  
 Alistair J. Sterling,  Yingli Su,  Yu-Chuan Su,  E. J. Sundstrom,  
 J. Talbot,  Zhen Tao,  J. Thirman,  Hung-Yi Tsai,  T. Tsuchimochi,  
 N. M. Tubman,  C. Utku,  S. P. Veccham,  O. Vydrov,  Rahel Weiss,  
 J. Wenzel,  Jonathan Wong,  J. Witte,  H. Wu,  Yanze Wu,  A. Yamada,  
 Chou-Hsun Yang,  Kun Yao,  S. Yeganeh,  S. R. Yost,  Qi Yu,  A. Zech,  
 F. Zeller,  Chongxiao Zhao,  Igor Ying Zhang,  Xing Zhang,  Yu Zhang,  
 D. Zuev,  A. Aspuru-Guzik,  A. T. Bell,  N. A. Besley,  K. B. Bravaya,  
 B. R. Brooks,  D. Casanova,  Jeng-Da Chai,  Hsing-Ta Chen,  S. Coriani,  
 C. J. Cramer,  A. E. DePrince, III,  R. A. DiStasio Jr.,  A. Dreuw,  
 B. D. Dunietz,  T. R. Furlani,  W. A. Goddard III,  S. Grimme,  
 S. Hammes-Schiffer,  T. Head-Gordon,  W. J. Hehre,  Chao-Ping Hsu,  
 T.-C. Jagau,  Yousung Jung,  A. Klamt,  Jing Kong,  D. S. Lambrecht,  
 Xiangyuan Li,  WanZhen Liang,  N. J. Mayhall,  C. W. McCurdy,  J. B. Neaton,  
 T. Neudecker,  C. Ochsenfeld,  J. A. Parkhill,  R. Peverati,  
 V. A. Rassolov,  Haisheng Ren,  Yihan Shao,  L. V. Slipchenko,  
 R. P. Steele,  J. E. Subotnik,  A. J. W. Thom,  A. Tkatchenko,  
 D. G. Truhlar,  T. Van Voorhis,  Fan Wang,  T. A. Wesolowski,  K. B. Whaley,  
 H. L. Woodcock III,  P. M. Zimmerman,  S. Faraji,  P. M. W. Gill,  
 M. Head-Gordon,  J. M. Herbert,  A. I. Krylov

 Contributors to earlier versions of Q-Chem not listed above: 
 R. D. Adamson,  B. Austin,  R. Baer,  J. Baker,  G. J. O. Beran,  
 K. Brandhorst,  S. T. Brown,  E. F. C. Byrd,  Arup K. Chakraborty,  
 G. K. L. Chan,  Chun-Min Chang,  Yunqing Chen,  C.-L. Cheng,  
 Siu Hung Chien,  D. M. Chipman,  D. L. Crittenden,  H. Dachsel,  
 R. J. Doerksen,  A. D. Dutoi,  R. G. Edgar,  J. Fosso-Tande,  
 L. Fusti-Molnar,  D. Ghosh,  A. Ghysels,  A. Golubeva-Zadorozhnaya,  
 J. Gonthier,  M. S. Gordon,  S. R. Gwaltney,  G. Hawkins,  J. E. Herr,  
 A. Heyden,  S. Hirata,  E. G. Hohenstein,  G. Kedziora,  F. J. Keil,  
 C. Kelley,  Jihan Kim,  R. A. King,  R. Z. Khaliullin,  P. P. Korambath,  
 W. Kurlancheek,  A. Laurent,  A. M. Lee,  M. S. Lee,  S. V. Levchenko,  
 Ching Yeh Lin,  D. Liotard,  E. Livshits,  R. C. Lochan,  I. Lotan,  
 L. A. Martinez-Martinez,  P. E. Maslen,  N. Nair,  D. P. O'Neill,  
 D. Neuhauser,  E. Neuscamman,  C. M. Oana,  R. Olivares-Amaya,  R. Olson,  
 T. M. Perrine,  B. Peters,  P. A. Pieniazek,  A. Prociuk,  Y. M. Rhee,  
 J. Ritchie,  M. A. Rohrdanz,  E. Rosta,  N. J. Russ,  H. F. Schaefer III,  
 M. W. Schmidt,  N. E. Schultz,  S. Sharma,  N. Shenvi,  C. D. Sherrill,  
 A. C. Simmonett,  A. Sodt,  T. Stein,  D. Stuck,  K. S. Thanthiriwatte,  
 V. Vanovschi,  L. Vogt,  Tao Wang,  A. Warshel,  M. A. Watson,  
 C. F. Williams,  Q. Wu,  X. Xu,  Jun Yang,  W. Zhang,  Yan Zhao

   Please cite Q-Chem as follows:
  "Software for the frontiers of quantum chemistry:
   An overview of developments in the Q-Chem 5 package"
   J. Chem. Phys. 155, 084801 (2021)
   https://doi.org/10.1063/5.0055522 (open access)

 Q-Chem 6.2.0 for Intel X86 EM64T Linux

 Parts of Q-Chem use Armadillo 9.900.5 (Nocturnal Misbehaviour).
 http://arma.sourceforge.net/

 Q-Chem begins on Fri Nov 15 11:06:39 2024  

 Host: 
0

     Scratch files written to /data/scratch/Me3SiH_COF2_eda2_op1_B3LYP_tzvppd20241115110637//
 May224 |scratch|qcdevops|jenkins|workspace|build_RNUM -1
 Processing $rem in /opt/qchem/6.2.0/config/preferences:
 Processing $rem in /home/ymao/.qchemrc:

 Q-Chem warning in module libgen/rem_setup.C, line 3379:

 Neither GIA nor STOLL is specified by user. Use STOLL as the default


 Checking the input file for inconsistencies... 	...done.

--------------------------------------------------------------
User input:
--------------------------------------------------------------
$molecule
0 1
--
0 1
C    -1.51515   -1.68734   0.63143
Si   -1.46549   0.06299    -0.07617
C    -1.36813   1.34293    1.30943
C    -2.96112   0.38544    -1.18568
H    -0.23241   0.19192    -0.92249
H    -1.55228   -2.44247   -0.16845
H    -0.62440   -1.89045   1.24431
H    -2.40138   -1.83193   1.26878
H    -1.30516   2.36554    0.90730
H    -0.48382   1.17534    1.94210
H    -2.25752   1.29283    1.95674
H    -2.92223   1.39409    -1.62420
H    -3.00675   -0.33789   -2.01387
H    -3.90083   0.30344    -0.61744
--
0 1
C    2.42675    -0.14809   -0.12331
O    2.17240    -0.46529   0.97892
F    2.56636    -0.96089   -1.15062
F    2.64164    1.08127    -0.54530
$end

$rem
JOBTYPE  EDA
EDA2  1
METHOD  B3LYP
BASIS  DEF2-TZVPPD
SYMMETRY  FALSE
SYM_IGNORE  TRUE
MEM_TOTAL  8000
MEM_STATIC  2000
BASIS_LIN_DEP_THRESH  6
THRESH  14
SCF_CONVERGENCE  8
GEN_SCFMAN  TRUE
MAXSCF  200
FD_MAT_VEC_PROD  FALSE
XC_GRID  000099000590
NL_GRID  1
SCF_GUESS  FRAGMO
FRZ_ORTHO_DECOMP  -1
EDA_CLS_DISP  TRUE
$end
--------------------------------------------------------------
 ----------------------------------------------------------------
             Standard Nuclear Orientation (Angstroms)
    I     Atom           X                Y                Z
 ----------------------------------------------------------------
    1      C      -1.5151500000    -1.6873400000     0.6314300000
    2      Si     -1.4654900000     0.0629900000    -0.0761700000
    3      C      -1.3681300000     1.3429300000     1.3094300000
    4      C      -2.9611200000     0.3854400000    -1.1856800000
    5      H      -0.2324100000     0.1919200000    -0.9224900000
    6      H      -1.5522800000    -2.4424700000    -0.1684500000
    7      H      -0.6244000000    -1.8904500000     1.2443100000
    8      H      -2.4013800000    -1.8319300000     1.2687800000
    9      H      -1.3051600000     2.3655400000     0.9073000000
   10      H      -0.4838200000     1.1753400000     1.9421000000
   11      H      -2.2575200000     1.2928300000     1.9567400000
   12      H      -2.9222300000     1.3940900000    -1.6242000000
   13      H      -3.0067500000    -0.3378900000    -2.0138700000
   14      H      -3.9008300000     0.3034400000    -0.6174400000
   15      C       2.4267500000    -0.1480900000    -0.1233100000
   16      O       2.1724000000    -0.4652900000     0.9789200000
   17      F       2.5663600000    -0.9608900000    -1.1506200000
   18      F       2.6416400000     1.0812700000    -0.5453000000
 ----------------------------------------------------------------
 Nuclear Repulsion Energy =         451.00290970 hartrees
 There are       37 alpha and       37 beta electrons
 Requested basis set is def2-TZVPPD
 There are 180 shells and 486 basis functions

 Total QAlloc Memory Limit   8000 MB
 Mega-Array Size      1956 MB
 MEM_STATIC part      2000 MB

 A cutoff of  1.0D-14 yielded  14357 shell pairs
 There are    103929 function pairs (    129798 Cartesian)
 Smallest overlap matrix eigenvalue = 2.03E-05

 Scale SEOQF with 1.000000e-01/1.000000e-01/1.000000e-01

 Standard Electronic Orientation quadrupole field applied
 Nucleus-field energy     =     0.0000000110 hartrees

 -----------------------------------------------------------------------
  General SCF calculation program by
  Eric Jon Sundstrom, Paul Horn, Yuezhi Mao, Dmitri Zuev, Alec White,
  David Stuck, Shaama M.S., Shane Yost, Joonho Lee, David Small,
  Daniel Levine, Susi Lehtola, Hugh Burton, Evgeny Epifanovsky,
  Bang C. Huynh
 -----------------------------------------------------------------------
================================================================
                 ALMO-EDA with the EDA2 driver                  
================================================================
 The second-generation ALMO-EDA (for DFT):                      
 P. R. Horn, Y. Mao and M. Head-Gordon, PCCP, 18, 23067 (2016)  
 Y. Mao et al. Annu. Rev. Phys. Chem. 72, 641 (2021)            
 Decomposition of the frozen energy:                            
 P. R. Horn, Y. Mao and M. Head-Gordon, JCP, 144, 114107 (2016) 
 FERF model for polarization:                                   
 P. R. Horn and M. Head-Gordon, JCP, 143, 114111 (2015)         
================================================================
 Using eda2 option set 1
 Option set summary: Frozen orbital wavefunction, initial wavefunction decomposition, and nDQ polarization.
--------------------------------
Printing EDA Options
--------------------------------
eda_child_super_basis      0
fragmo_guess_mode          0
child_mp                   1
child_mp_orders            232
cls_elec                   1
cls_disp                   1
scfmi_mode                 1
scfmi_occs                 0
scfmi_virts                0
frz_relax                  0
frz_relax_method           0
dc_pen_start               0
dc_pen_conv                0
dc_pen_increment           0
dc_pen_steps               0
dc_pen_thresh_factor       0
dc_pen_pre_newton_thresh   0
frz_ortho_decomp           0
frz_ortho_decomp_conv      6
plot_mo_ortho_frz          0
frgm_method                2
scfmi_freeze_ss            0
separate_rehyb             0
plot_diff_den              0
eda_nocv                   0
eda_vct_relax              1
disp_free_x                0
disp_free_c                0
eda_bsse                   0
eda_pct_a                  0
eda_covp                   0
eda_vct_a                  0
--------------------------------
 Attempting to make child job directory: /data/scratch/Me3SiH_COF2_eda2_op1_B3LYP_tzvppd20241115110637//Frg1/
 Attempting to make child job directory: /data/scratch/Me3SiH_COF2_eda2_op1_B3LYP_tzvppd20241115110637//Frg2/
 Creating input file /data/scratch/Me3SiH_COF2_eda2_op1_B3LYP_tzvppd20241115110637/Frg1.input
 using default PutDataFrgm: nothing
 calling putenv with: QCSCRATCH=/data/scratch/Me3SiH_COF2_eda2_op1_B3LYP_tzvppd20241115110637/ 
 Spawning Job For Fragment 0
 Done Job For Fragment 0
 calling putenv with: QCSCRATCH=/data/scratch 
 calling putenv with: QCTHREADS=8 
 Creating input file /data/scratch/Me3SiH_COF2_eda2_op1_B3LYP_tzvppd20241115110637/Frg2.input
 using default PutDataFrgm: nothing
 calling putenv with: QCSCRATCH=/data/scratch/Me3SiH_COF2_eda2_op1_B3LYP_tzvppd20241115110637/ 
 Spawning Job For Fragment 1
 Done Job For Fragment 1
 calling putenv with: QCSCRATCH=/data/scratch 
 calling putenv with: QCTHREADS=8 
Doing General SCFMI
 Exchange:     0.2000 Hartree-Fock + 0.0800 Slater + 0.7200 B88
 Correlation:  0.1900 VWN1RPA + 0.8100 LYP
 Using Euler-Maclaurin-Lebedev (99,590) quadrature formula
performing fock build before subrot guess so that all methods have access
Printing subrot_rss_gen Method Specification:
Occupied Subspace Method is 0
Virtual Subspace Method is 0
Energy of the unrelaxed supersystem initial determinant -723.111229980395
write pseudocanon occs and virts to disk
write pseudocanon orbital energies to disk
 Exchange:     0.2000 Hartree-Fock + 0.0800 Slater + 0.7200 B88
 Correlation:  0.1900 VWN1RPA + 0.8100 LYP
 Using Euler-Maclaurin-Lebedev (99,590) quadrature formula
 Hartree-Fock
Doing General SCFMI
 Exchange:     0.2000 Hartree-Fock + 0.0800 Slater + 0.7200 B88
 Correlation:  0.1900 VWN1RPA + 0.8100 LYP
 Using Euler-Maclaurin-Lebedev (99,590) quadrature formula
performing fock build at end of subrot_r(subrot) constructor so that all methods have access
<S^2> of initial wavefunction before polarization iterations 0.0000000000
Beginning iterations for the determination of the polarized wavefunction
Energy prior to optimization (guess energy) = -723.111229980396
Begin Timing: Total SCF Calculation
begin iterations for algorithm: DIIS         
the SCF tolerance is set to 1.00e-08
    1    -723.1112299804      7.15e-05     00000 
    2    -723.1116581675      3.18e-05     00000 
    3    -723.1116741575      3.30e-05     00000 
    4    -723.1116943241      1.32e-05     00000 
    5    -723.1116982427      4.02e-06     00000 
    6    -723.1116986729      1.61e-06     00000 
    7    -723.1116987214      7.96e-07     00000 
    8    -723.1116987322      2.96e-07     00000 
    9    -723.1116987334      1.67e-07     00000 
   10    -723.1116987340      4.81e-08     00000 
   11    -723.1116987341      1.81e-08     00000 
   12    -723.1116987341      1.16e-08     00000 
   13    -723.1116987341      1.60e-09     00000 Convergence criterion met
write pseudocanon occs and virts to disk
write pseudocanon orbital energies to disk
Timing for Total SCF: 353.00s (wall), 2816.73s (cpu)
<S^2> of polarized wavefunction after polarization iterations 0.0000000000
relaxing scfmi constraint to allow all rotations in the entire AO span
Doing General SCFMI
 Exchange:     0.2000 Hartree-Fock + 0.0800 Slater + 0.7200 B88
 Correlation:  0.1900 VWN1RPA + 0.8100 LYP
 Using Euler-Maclaurin-Lebedev (99,590) quadrature formula
performing fock build at end of subrot_r(subrot) constructor so that all methods have access
<S^2> of polarized wavefunction before ct-allowed iterations 0.0000000000
Beginning iterations for the determination of the CT-Allowed wavefunction
Energy prior to optimization (guess energy) = -723.111698734120
Begin Timing: Total SCF Calculation
begin iterations for algorithm: DIIS         
the SCF tolerance is set to 1.00e-08
    1    -723.1116987341      1.01e-04     00000 
    2    -723.1125280794      3.19e-06     00000 
    3    -723.1125321775      1.53e-06     00000 
    4    -723.1125322790      1.38e-06     00000 
    5    -723.1125324301      5.10e-07     00000 
    6    -723.1125324523      7.33e-08     00000 
    7    -723.1125324529      1.79e-08     00000 
    8    -723.1125324529      4.42e-09     00000 Convergence criterion met
write pseudocanon occs and virts to disk
write pseudocanon orbital energies to disk
Timing for Total SCF: 201.00s (wall), 1600.52s (cpu)
<S^2> of ct_allowed wavefunction after ct-allowed iterations 0.0000000000

================================
        Results of EDA2         
================================
Basic EDA Quantities
--------------------
Fragment Energies (Ha):
1 -409.9516466565
2 -313.1598341420
--------------------
  E_prp (kJ/mol) = 0.0000
  E_frz (kJ/mol) = 0.6585
  E_pol (kJ/mol) = -1.2307
  E_vct (kJ/mol) = -2.1890
  E_int (kJ/mol) = -2.7612
--------------------


Decomposition of frozen interaction energy
--------------------
  --------------------
  Classical Frozen Decomposition:
  --------------------
     E_cls_elec  (CLS ELEC)  (kJ/mol) = -8.3223
     E_mod_pauli (MOD PAULI) (kJ/mol) = 9.8029 (FRZ - CLS ELEC - CLS DISP)
     E_cls_disp  (CLS DISP)  (kJ/mol) = -0.8220
  --------------------
--------------------

Simplified EDA Summary (kJ/mol)
--------------------
 PREPARATION      0.0000
 FROZEN           0.6585 (ELEC + PAULI + DISP)
[ELEC + PAULI = 1.4805, DISP = -0.8220]
 POLARIZATION    -1.2307
 CHARGE TRANSFER -2.1890
 TOTAL           -2.7612     (PRP + FRZ + POL + CT)
--------------------
 
 --------------------------------------------------------------
 
                    Orbital Energies (a.u.)
 --------------------------------------------------------------
 
 Alpha MOs
 -- Occupied --
-66.0946 -24.7630 -24.7630 -19.1823 -10.4407 -10.1540 -10.1522 -10.1518
 -5.2564  -3.6148  -3.6140  -3.6139  -1.3445  -1.2745  -1.1219  -0.7143
 -0.7040  -0.6807  -0.6794  -0.6347  -0.5868  -0.5578  -0.4915  -0.4867
 -0.4796  -0.4718  -0.4210  -0.4145  -0.4106  -0.4070  -0.3947  -0.3938
 -0.3848  -0.3687  -0.3167  -0.3082  -0.3078
 -- Virtual --
 -0.0314  -0.0096   0.0059   0.0170   0.0206   0.0435   0.0509   0.0544
  0.0636   0.0639   0.0726   0.0749   0.0782   0.0876   0.0920   0.0939
  0.0990   0.1043   0.1077   0.1124   0.1128   0.1180   0.1231   0.1301
  0.1344   0.1447   0.1550   0.1674   0.1721   0.1758   0.1790   0.1890
  0.1941   0.1987   0.2082   0.2155   0.2210   0.2221   0.2295   0.2339
  0.2389   0.2487   0.2570   0.2594   0.2605   0.2624   0.2685   0.2736
  0.2781   0.2825   0.2857   0.2882   0.2940   0.2994   0.3005   0.3130
  0.3142   0.3146   0.3224   0.3243   0.3327   0.3335   0.3473   0.3499
  0.3541   0.3595   0.3675   0.3744   0.3765   0.3857   0.3891   0.4014
  0.4050   0.4091   0.4186   0.4228   0.4273   0.4279   0.4447   0.4470
  0.4514   0.4523   0.4553   0.4639   0.4647   0.4743   0.4768   0.4864
  0.4914   0.4991   0.5030   0.5173   0.5224   0.5275   0.5394   0.5432
  0.5536   0.5624   0.5629   0.5696   0.5782   0.5849   0.5885   0.5924
  0.6000   0.6056   0.6318   0.6412   0.6431   0.6576   0.6623   0.6634
  0.6669   0.6774   0.6813   0.6843   0.6858   0.6918   0.7065   0.7195
  0.7213   0.7230   0.7261   0.7278   0.7337   0.7410   0.7474   0.7501
  0.7582   0.7727   0.7875   0.7901   0.7943   0.8163   0.8172   0.8312
  0.8495   0.8586   0.8654   0.8718   0.8862   0.8867   0.8928   0.9065
  0.9138   0.9167   0.9493   0.9619   0.9740   1.0210   1.0257   1.0337
  1.0500   1.0590   1.0624   1.0682   1.0743   1.0746   1.0836   1.0970
  1.1325   1.1486   1.1537   1.1840   1.1849   1.1924   1.1958   1.2011
  1.2052   1.2162   1.2195   1.2268   1.2390   1.2590   1.2611   1.2631
  1.2761   1.2814   1.3177   1.3224   1.3592   1.3704   1.3710   1.3739
  1.3835   1.4016   1.4100   1.4224   1.4574   1.4673   1.4738   1.4888
  1.4919   1.5225   1.5311   1.5510   1.5595   1.5629   1.6135   1.6172
  1.6194   1.6340   1.6389   1.6515   1.6658   1.6764   1.6915   1.7327
  1.7401   1.7440   1.7504   1.7534   1.7895   1.7917   1.8085   1.8370
  1.8506   1.8671   1.8793   1.8978   1.9092   1.9152   1.9234   2.0031
  2.0082   2.0435   2.0625   2.1138   2.1172   2.1613   2.1940   2.2321
  2.2396   2.2579   2.3045   2.3356   2.3400   2.3446   2.3586   2.3965
  2.4218   2.4706   2.5103   2.5609   2.6405   2.6446   2.7296   2.7769
  2.7825   2.7892   2.8006   2.8344   2.8382   2.8441   2.8512   2.8636
  2.8754   2.8787   2.8903   2.8956   2.9015   2.9062   2.9173   2.9352
  2.9498   2.9652   2.9764   3.0099   3.0151   3.0370   3.0708   3.0724
  3.0858   3.0940   3.1006   3.1338   3.1359   3.1639   3.1693   3.1760
  3.1960   3.2067   3.2085   3.2185   3.2324   3.2458   3.2607   3.2628
  3.2758   3.2897   3.3078   3.3645   3.3915   3.3919   3.4074   3.4247
  3.4364   3.4531   3.4624   3.4746   3.4818   3.5032   3.5036   3.5343
  3.5422   3.5559   3.5632   3.5659   3.5778   3.6045   3.6142   3.6166
  3.6341   3.6607   3.6747   3.7160   3.7189   3.7322   3.7501   3.7635
  3.7821   3.7939   3.8039   3.8623   3.8985   3.9244   3.9466   3.9801
  3.9851   3.9909   4.0273   4.0292   4.0464   4.0575   4.0588   4.0816
  4.1029   4.1151   4.1547   4.1578   4.1735   4.1919   4.1936   4.2069
  4.2268   4.2670   4.2718   4.2927   4.2971   4.3047   4.3118   4.3169
  4.3193   4.3470   4.3652   4.3714   4.4139   4.4849   4.5684   4.5706
  4.5938   4.6000   4.6043   4.6157   4.6357   4.7116   4.7167   4.7347
  4.8589   4.8641   5.0321   5.0477   5.0510   5.0560   5.0771   5.0786
  5.1014   5.1202   5.1256   5.1362   5.1592   5.1793   5.1843   5.1898
  5.1927   5.2488   5.2638   5.2697   5.3354   5.3474   5.3587   5.3875
  5.3886   5.4211   5.4591   5.4645   5.4776   5.4890   5.5262   5.6631
  5.6732   5.6798   5.6943   5.7051   5.7077   5.7446   6.0896   6.2009
  6.3658   6.4526   6.5314   6.7376   6.7501   6.7514   6.7698   6.7908
  6.8049   6.8142   6.8358   6.8569   6.8869   6.9341   7.0825   7.1059
  7.1129   7.2178   7.2733   7.3936   7.4846   7.5692   8.0937   8.4144
  8.4879   8.4885   8.5080   8.7313   8.7483   8.9204   9.0359   9.1943
  9.2604  12.2289  23.4447  23.5221  23.5344  23.5365  44.1292  57.3757
 57.4022
 --------------------------------------------------------------
 
          Ground-State Mulliken Net Atomic Charges

     Atom                 Charge (a.u.)
  ----------------------------------------
      1 C                    -0.404008
      2 Si                    0.421710
      3 C                    -0.408961
      4 C                    -0.388313
      5 H                    -0.245045
      6 H                     0.117950
      7 H                     0.114274
      8 H                     0.126584
      9 H                     0.117584
     10 H                     0.115687
     11 H                     0.127010
     12 H                     0.095135
     13 H                     0.096055
     14 H                     0.121560
     15 C                     0.717512
     16 O                    -0.330878
     17 F                    -0.197448
     18 F                    -0.196408
  ----------------------------------------
  Sum of atomic charges =     0.000000

 -----------------------------------------------------------------
                    Cartesian Multipole Moments
 -----------------------------------------------------------------
    Charge (ESU x 10^10)
                 0.0000
    Dipole Moment (Debye)
         X      -0.4471      Y       0.2155      Z      -0.5545
       Tot       0.7442
    Quadrupole Moments (Debye-Ang)
        XX     -53.0909     XY       0.4058     YY     -57.3329
        XZ      -1.9900     YZ       0.5431     ZZ     -58.4838
    Octopole Moments (Debye-Ang^2)
       XXX      49.7093    XXY       0.6176    XYY      10.6510
       YYY       7.3470    XXZ       0.7321    XYZ       0.5895
       YYZ      -4.0915    XZZ       8.4265    YZZ       0.6289
       ZZZ      -3.2640
    Hexadecapole Moments (Debye-Ang^3)
      XXXX   -1532.7385   XXXY      31.9367   XXYY    -338.9581
      XYYY      25.9339   YYYY    -400.7682   XXXZ     -15.9058
      XXYZ       1.8983   XYYZ       9.7025   YYYZ      -5.5689
      XXZZ    -334.7107   XYZZ      15.5075   YYZZ    -126.9368
      XZZZ       7.1493   YZZZ      -5.9159   ZZZZ    -353.0534
 -----------------------------------------------------------------
 Total job time:  1526.13s(wall), 5697.49s(cpu) 
 Fri Nov 15 11:32:05 2024

        *************************************************************
        *                                                           *
        *  Thank you very much for using Q-Chem.  Have a nice day.  *
        *                                                           *
        *************************************************************


