
Running Job 1 of 1 Me3SiH_ICN_eda2_op1_B3LYP_tzvppd.in
qchem Me3SiH_ICN_eda2_op1_B3LYP_tzvppd.in_3866099.0 /data/scratch/Me3SiH_ICN_eda2_op1_B3LYP_tzvppd20241115110502/ 1
/opt/qchem/6.2.0/exe/qcprog.exe_s Me3SiH_ICN_eda2_op1_B3LYP_tzvppd.in_3866099.0 /data/scratch/Me3SiH_ICN_eda2_op1_B3LYP_tzvppd20241115110502/
                  Welcome to Q-Chem
     A Quantum Leap Into The Future Of Chemistry


 Q-Chem 6.2, Q-Chem, Inc., Pleasanton, CA (2024)

 E. Epifanovsky,  A. T. B. Gilbert,  Xintian Feng,  Joonho Lee,  Yuezhi Mao,  
 N. Mardirossian,  P. Pokhilko,  A. White,  M. Wormit,  M. P. Coons,  
 A. L. Dempwolff,  Zhengting Gan,  D. Hait,  P. R. Horn,  L. D. Jacobson,  
 I. Kaliman,  J. Kussmann,  A. W. Lange,  Ka Un Lao,  D. S. Levine,  Jie Liu,  
 S. C. McKenzie,  A. F. Morrison,  K. D. Nanda,  F. Plasser,  D. R. Rehn,  
 M. L. Vidal,  Zhi-Qiang You,  Ying Zhu,  Huseyin Aksu,  B. Alam,  
 B. Albrecht,  A. Aldossary,  E. Alguire,  J. H. Andersen,  
 J. E. Arias-Martinez,  V. Athavale,  D. Barton,  K. Begam,  A. Behn,  
 N. Bellonzi,  Y. A. Bernard,  E. J. Berquist,  H. Burton,  A. Carreras,  
 K. Carter-Fenk,  Mathew Chow,  Romit Chakraborty,  Chandrima Chakravarty,  
 Junhan Chen,  A. D. Chien,  K. D. Closser,  V. Cofer-Shabica,  L. Cunha,  
 S. Dasgupta,  Jia Deng,  Joseph Dickinson,  M. de Wergifosse,  
 M. Diedenhofen,  Hainam Do,  Wenjie Dou,  S. Ehlert,  Po-Tung Fang,  
 S. Fatehi,  Qingguo Feng,  Jonathan Fetherolf,  T. Friedhoff,  
 Thomas Froitzheim,  Sarai Folkestad,  B. Ganoe,  J. Gayvert,  Qinghui Ge,  
 G. Gidofalvi,  M. Gimferrer,  M. Goldey,  Montgomery Gray,  J. Gomes,  
 C. Gonzalez-Espinoza,  S. Gulania,  A. Gunina,  J. A. Gyamfi,  
 M. W. D. Hanson-Heine,  P. H. P. Harbach,  A. W. Hauser,  M. F. Herbst,  
 M. Hernandez Vera,  M. Hodecker,  Z. C. Holden,  S. Houck,  Xunkun Huang,  
 Kerwin Hui,  B. C. Huynh,  K. Ikeda,  M. Ivanov,  Nayanthara K. Jayadev,  
 Hyunjun Ji,  Zuxin Jin,  Hanjie Jiang,  Subrata Jana,  B. Kaduk,  
 S. Kaehler,  R. Kang,  K. Khistyaev,  Jaehoon Kim,  Yongbin Kim,  
 P. Klunzinger,  Z. Koczor-Benda,  Joong Hoon Koh,  D. Kosenkov,  
 Saikiran Kotaru,  L. Koulias,  T. Kowalczyk,  C. M. Krauter,  K. Kue,  
 A. Kunitsa,  T. Kus,  A. Landau,  K. V. Lawler,  D. Lefrancois,  S. Lehtola,  
 Rain Li,  Shaozhi Li,  Tao E. Li,  Yi-Pei Li,  Jiashu Liang,  M. Liebenthal,  
 Hung-Hsuan Lin,  You-Sheng Lin,  Fenglai Liu,  Kuan-Yu Liu,  Xiao Liu,  
 M. Loipersberger,  A. Luenser,  C. Malbon,  Aniket Mandal,  Manisha,  
 A. Manjanath,  P. Manohar,  E. Mansoor,  S. F. Manzer,  Shan-Ping Mao,  
 A. V. Marenich,  T. Markovich,  S. Mason,  F. Matz,  S. A. Maurer,  
 Samuel May,  Alexandra McIsaac,  P. F. McLaughlin,  M. F. S. J. Menger,  
 J.-M. Mewes,  S. A. Mewes,  P. Morgante,  Mohammad Mostafanejad,  
 Madhubani Mukherjee,  J. W. Mullinax,  Quyen Nguyen,  Avik Kumar Ojha,  
 K. J. Oosterbaan,  Eno Paenurk,  Xiaoliang Pan,  G. Paran,  V. Parravicini,  
 Alexander C. Paul,  Suranjan K. Paul,  F. Pavosevic,  Zheng Pei,  S. Prager,  
 E. I. Proynov,  E. Ramos,  B. Rana,  A. E. Rask,  A. Rettig,  R. M. Richard,  
 F. Rob,  E. Rossomme,  T. Scheele,  M. Scheurer,  M. Schneider,  
 P. E. Schneider,  Tim K. Schramm,  N. Sergueev,  S. M. Sharada,  
 Hengyuan Shen,  W. Skomorowski,  D. W. Small,  C. J. Stein,  
 Alistair J. Sterling,  Yingli Su,  Yu-Chuan Su,  E. J. Sundstrom,  
 J. Talbot,  Zhen Tao,  J. Thirman,  Hung-Yi Tsai,  T. Tsuchimochi,  
 N. M. Tubman,  C. Utku,  S. P. Veccham,  O. Vydrov,  Rahel Weiss,  
 J. Wenzel,  Jonathan Wong,  J. Witte,  H. Wu,  Yanze Wu,  A. Yamada,  
 Chou-Hsun Yang,  Kun Yao,  S. Yeganeh,  S. R. Yost,  Qi Yu,  A. Zech,  
 F. Zeller,  Chongxiao Zhao,  Igor Ying Zhang,  Xing Zhang,  Yu Zhang,  
 D. Zuev,  A. Aspuru-Guzik,  A. T. Bell,  N. A. Besley,  K. B. Bravaya,  
 B. R. Brooks,  D. Casanova,  Jeng-Da Chai,  Hsing-Ta Chen,  S. Coriani,  
 C. J. Cramer,  A. E. DePrince, III,  R. A. DiStasio Jr.,  A. Dreuw,  
 B. D. Dunietz,  T. R. Furlani,  W. A. Goddard III,  S. Grimme,  
 S. Hammes-Schiffer,  T. Head-Gordon,  W. J. Hehre,  Chao-Ping Hsu,  
 T.-C. Jagau,  Yousung Jung,  A. Klamt,  Jing Kong,  D. S. Lambrecht,  
 Xiangyuan Li,  WanZhen Liang,  N. J. Mayhall,  C. W. McCurdy,  J. B. Neaton,  
 T. Neudecker,  C. Ochsenfeld,  J. A. Parkhill,  R. Peverati,  
 V. A. Rassolov,  Haisheng Ren,  Yihan Shao,  L. V. Slipchenko,  
 R. P. Steele,  J. E. Subotnik,  A. J. W. Thom,  A. Tkatchenko,  
 D. G. Truhlar,  T. Van Voorhis,  Fan Wang,  T. A. Wesolowski,  K. B. Whaley,  
 H. L. Woodcock III,  P. M. Zimmerman,  S. Faraji,  P. M. W. Gill,  
 M. Head-Gordon,  J. M. Herbert,  A. I. Krylov

 Contributors to earlier versions of Q-Chem not listed above: 
 R. D. Adamson,  B. Austin,  R. Baer,  J. Baker,  G. J. O. Beran,  
 K. Brandhorst,  S. T. Brown,  E. F. C. Byrd,  Arup K. Chakraborty,  
 G. K. L. Chan,  Chun-Min Chang,  Yunqing Chen,  C.-L. Cheng,  
 Siu Hung Chien,  D. M. Chipman,  D. L. Crittenden,  H. Dachsel,  
 R. J. Doerksen,  A. D. Dutoi,  R. G. Edgar,  J. Fosso-Tande,  
 L. Fusti-Molnar,  D. Ghosh,  A. Ghysels,  A. Golubeva-Zadorozhnaya,  
 J. Gonthier,  M. S. Gordon,  S. R. Gwaltney,  G. Hawkins,  J. E. Herr,  
 A. Heyden,  S. Hirata,  E. G. Hohenstein,  G. Kedziora,  F. J. Keil,  
 C. Kelley,  Jihan Kim,  R. A. King,  R. Z. Khaliullin,  P. P. Korambath,  
 W. Kurlancheek,  A. Laurent,  A. M. Lee,  M. S. Lee,  S. V. Levchenko,  
 Ching Yeh Lin,  D. Liotard,  E. Livshits,  R. C. Lochan,  I. Lotan,  
 L. A. Martinez-Martinez,  P. E. Maslen,  N. Nair,  D. P. O'Neill,  
 D. Neuhauser,  E. Neuscamman,  C. M. Oana,  R. Olivares-Amaya,  R. Olson,  
 T. M. Perrine,  B. Peters,  P. A. Pieniazek,  A. Prociuk,  Y. M. Rhee,  
 J. Ritchie,  M. A. Rohrdanz,  E. Rosta,  N. J. Russ,  H. F. Schaefer III,  
 M. W. Schmidt,  N. E. Schultz,  S. Sharma,  N. Shenvi,  C. D. Sherrill,  
 A. C. Simmonett,  A. Sodt,  T. Stein,  D. Stuck,  K. S. Thanthiriwatte,  
 V. Vanovschi,  L. Vogt,  Tao Wang,  A. Warshel,  M. A. Watson,  
 C. F. Williams,  Q. Wu,  X. Xu,  Jun Yang,  W. Zhang,  Yan Zhao

   Please cite Q-Chem as follows:
  "Software for the frontiers of quantum chemistry:
   An overview of developments in the Q-Chem 5 package"
   J. Chem. Phys. 155, 084801 (2021)
   https://doi.org/10.1063/5.0055522 (open access)

 Q-Chem 6.2.0 for Intel X86 EM64T Linux

 Parts of Q-Chem use Armadillo 9.900.5 (Nocturnal Misbehaviour).
 http://arma.sourceforge.net/

 Q-Chem begins on Fri Nov 15 11:05:02 2024  

 Host: 
0

     Scratch files written to /data/scratch/Me3SiH_ICN_eda2_op1_B3LYP_tzvppd20241115110502//
 May224 |scratch|qcdevops|jenkins|workspace|build_RNUM -1
 Processing $rem in /opt/qchem/6.2.0/config/preferences:
 Processing $rem in /home/ymao/.qchemrc:

 Q-Chem warning in module libgen/rem_setup.C, line 3379:

 Neither GIA nor STOLL is specified by user. Use STOLL as the default


 Checking the input file for inconsistencies... 	...done.
 Reading auxiliary files from /opt/qchem/6.2.0/qcaux (QCAUX)

--------------------------------------------------------------
User input:
--------------------------------------------------------------
$molecule
0 1
--
0 1
H    -1.35530   -0.00009   0.96646
Si   -2.53568   -0.00003   0.02213
C    -2.42322   -1.55027   -1.03852
H    -1.50030   -1.55984   -1.64054
H    -2.43158   -2.46207   -0.42004
H    -3.27588   -1.60939   -1.73483
C    -4.09460   -0.00017   1.07385
H    -4.14057   -0.89063   1.72067
H    -4.99405   -0.00012   0.43638
H    -4.14060   0.89015    1.72086
C    -2.42329   1.55043    -1.03821
H    -3.27596   1.60964    -1.73451
H    -1.50038   1.56016    -1.64023
H    -2.43171   2.46210    -0.41956
--
0 1
I    1.25298    0.00001    0.26011
C    3.19904    0.00005    -0.26107
N    4.31717    0.00017    -0.56149
$end

$rem
JOBTYPE  EDA
EDA2  1
METHOD  B3LYP
BASIS  DEF2-TZVPPD
SYMMETRY  FALSE
SYM_IGNORE  TRUE
MEM_TOTAL  8000
MEM_STATIC  2000
BASIS_LIN_DEP_THRESH  6
THRESH  14
SCF_CONVERGENCE  8
GEN_SCFMAN  TRUE
MAXSCF  200
FD_MAT_VEC_PROD  FALSE
XC_GRID  000099000590
NL_GRID  1
DFT_D  False
SCF_GUESS  FRAGMO
FRZ_ORTHO_DECOMP  -1
EDA_CLS_DISP  TRUE
$end
--------------------------------------------------------------
 ----------------------------------------------------------------
             Standard Nuclear Orientation (Angstroms)
    I     Atom           X                Y                Z
 ----------------------------------------------------------------
    1      H      -1.3553000000    -0.0000900000     0.9664600000
    2      Si     -2.5356800000    -0.0000300000     0.0221300000
    3      C      -2.4232200000    -1.5502700000    -1.0385200000
    4      H      -1.5003000000    -1.5598400000    -1.6405400000
    5      H      -2.4315800000    -2.4620700000    -0.4200400000
    6      H      -3.2758800000    -1.6093900000    -1.7348300000
    7      C      -4.0946000000    -0.0001700000     1.0738500000
    8      H      -4.1405700000    -0.8906300000     1.7206700000
    9      H      -4.9940500000    -0.0001200000     0.4363800000
   10      H      -4.1406000000     0.8901500000     1.7208600000
   11      C      -2.4232900000     1.5504300000    -1.0382100000
   12      H      -3.2759600000     1.6096400000    -1.7345100000
   13      H      -1.5003800000     1.5601600000    -1.6402300000
   14      H      -2.4317100000     2.4621000000    -0.4195600000
   15      I       1.2529800000     0.0000100000     0.2601100000
   16      C       3.1990400000     0.0000500000    -0.2610700000
   17      N       4.3171700000     0.0001700000    -0.5614900000
 ----------------------------------------------------------------
 Nuclear Repulsion Energy =         436.60698116 hartrees
 There are       40 alpha and       40 beta electrons
 Requested basis set is def2-TZVPPD
 There are 170 shells and 462 basis functions

 Total QAlloc Memory Limit   8000 MB
 Mega-Array Size      1956 MB
 MEM_STATIC part      2000 MB

 A cutoff of  1.0D-14 yielded  12414 shell pairs
 There are     90616 function pairs (    113433 Cartesian)
 Requested basis set is def2-TZVPPD
 Compound shells will be simplified
 There are 170 shells and 462 basis functions
 A cutoff of  1.0D-14 yielded  12414 shell pairs
 There are     90616 function pairs (    113433 Cartesian)
 Smallest overlap matrix eigenvalue = 2.12E-05

 Scale SEOQF with 1.000000e-01/1.000000e-01/1.000000e-01

 Standard Electronic Orientation quadrupole field applied
 Nucleus-field energy     =     0.0000000203 hartrees

 -----------------------------------------------------------------------
  General SCF calculation program by
  Eric Jon Sundstrom, Paul Horn, Yuezhi Mao, Dmitri Zuev, Alec White,
  David Stuck, Shaama M.S., Shane Yost, Joonho Lee, David Small,
  Daniel Levine, Susi Lehtola, Hugh Burton, Evgeny Epifanovsky,
  Bang C. Huynh
 -----------------------------------------------------------------------
================================================================
                 ALMO-EDA with the EDA2 driver                  
================================================================
 The second-generation ALMO-EDA (for DFT):                      
 P. R. Horn, Y. Mao and M. Head-Gordon, PCCP, 18, 23067 (2016)  
 Y. Mao et al. Annu. Rev. Phys. Chem. 72, 641 (2021)            
 Decomposition of the frozen energy:                            
 P. R. Horn, Y. Mao and M. Head-Gordon, JCP, 144, 114107 (2016) 
 FERF model for polarization:                                   
 P. R. Horn and M. Head-Gordon, JCP, 143, 114111 (2015)         
================================================================
 Using eda2 option set 1
 Option set summary: Frozen orbital wavefunction, initial wavefunction decomposition, and nDQ polarization.
--------------------------------
Printing EDA Options
--------------------------------
eda_child_super_basis      0
fragmo_guess_mode          0
child_mp                   1
child_mp_orders            232
cls_elec                   1
cls_disp                   1
scfmi_mode                 1
scfmi_occs                 0
scfmi_virts                0
frz_relax                  0
frz_relax_method           0
dc_pen_start               0
dc_pen_conv                0
dc_pen_increment           0
dc_pen_steps               0
dc_pen_thresh_factor       0
dc_pen_pre_newton_thresh   0
frz_ortho_decomp           0
frz_ortho_decomp_conv      6
plot_mo_ortho_frz          0
frgm_method                2
scfmi_freeze_ss            0
separate_rehyb             0
plot_diff_den              0
eda_nocv                   0
eda_vct_relax              1
disp_free_x                0
disp_free_c                0
eda_bsse                   0
eda_pct_a                  0
eda_covp                   0
eda_vct_a                  0
--------------------------------
 Attempting to make child job directory: /data/scratch/Me3SiH_ICN_eda2_op1_B3LYP_tzvppd20241115110502//Frg1/
 Attempting to make child job directory: /data/scratch/Me3SiH_ICN_eda2_op1_B3LYP_tzvppd20241115110502//Frg2/
 Creating input file /data/scratch/Me3SiH_ICN_eda2_op1_B3LYP_tzvppd20241115110502/Frg1.input
 using default PutDataFrgm: nothing
 calling putenv with: QCSCRATCH=/data/scratch/Me3SiH_ICN_eda2_op1_B3LYP_tzvppd20241115110502/ 
 Spawning Job For Fragment 0
 Done Job For Fragment 0
 calling putenv with: QCSCRATCH=/data/scratch 
 calling putenv with: QCTHREADS=8 
 Creating input file /data/scratch/Me3SiH_ICN_eda2_op1_B3LYP_tzvppd20241115110502/Frg2.input
 using default PutDataFrgm: nothing
 calling putenv with: QCSCRATCH=/data/scratch/Me3SiH_ICN_eda2_op1_B3LYP_tzvppd20241115110502/ 
 Spawning Job For Fragment 1
 Done Job For Fragment 1
 calling putenv with: QCSCRATCH=/data/scratch 
 calling putenv with: QCTHREADS=8 
Doing General SCFMI
 Exchange:     0.2000 Hartree-Fock + 0.0800 Slater + 0.7200 B88
 Correlation:  0.1900 VWN1RPA + 0.8100 LYP
 Using Euler-Maclaurin-Lebedev (99,590) quadrature formula
performing fock build before subrot guess so that all methods have access
Printing subrot_rss_gen Method Specification:
Occupied Subspace Method is 0
Virtual Subspace Method is 0
Energy of the unrelaxed supersystem initial determinant -800.608056805700
write pseudocanon occs and virts to disk
write pseudocanon orbital energies to disk
 Exchange:     0.2000 Hartree-Fock + 0.0800 Slater + 0.7200 B88
 Correlation:  0.1900 VWN1RPA + 0.8100 LYP
 Using Euler-Maclaurin-Lebedev (99,590) quadrature formula
 Hartree-Fock
Doing General SCFMI
 Exchange:     0.2000 Hartree-Fock + 0.0800 Slater + 0.7200 B88
 Correlation:  0.1900 VWN1RPA + 0.8100 LYP
 Using Euler-Maclaurin-Lebedev (99,590) quadrature formula
performing fock build at end of subrot_r(subrot) constructor so that all methods have access
<S^2> of initial wavefunction before polarization iterations 0.0000000000
Beginning iterations for the determination of the polarized wavefunction
Energy prior to optimization (guess energy) = -800.608056805700
Begin Timing: Total SCF Calculation
begin iterations for algorithm: DIIS         
the SCF tolerance is set to 1.00e-08
    1    -800.6080568057      1.58e-04     00000 
    2    -800.6099069841      7.58e-05     00000 
    3    -800.6100558547      5.22e-05     00000 
    4    -800.6100989475      3.50e-05     00000 
    5    -800.6101219201      1.51e-05     00000 
    6    -800.6101275428      5.31e-06     00000 
    7    -800.6101287650      2.76e-06     00000 
    8    -800.6101291245      1.61e-06     00000 
    9    -800.6101292222      5.84e-07     00000 
   10    -800.6101292293      3.20e-07     00000 
   11    -800.6101292315      1.76e-07     00000 
   12    -800.6101292323      7.61e-08     00000 
   13    -800.6101292326      3.02e-08     00000 
   14    -800.6101292326      1.57e-08     00000 
   15    -800.6101292326      5.73e-09     00000 Convergence criterion met
write pseudocanon occs and virts to disk
write pseudocanon orbital energies to disk
Timing for Total SCF: 345.00s (wall), 2760.40s (cpu)
<S^2> of polarized wavefunction after polarization iterations 0.0000000000
relaxing scfmi constraint to allow all rotations in the entire AO span
Doing General SCFMI
 Exchange:     0.2000 Hartree-Fock + 0.0800 Slater + 0.7200 B88
 Correlation:  0.1900 VWN1RPA + 0.8100 LYP
 Using Euler-Maclaurin-Lebedev (99,590) quadrature formula
performing fock build at end of subrot_r(subrot) constructor so that all methods have access
<S^2> of polarized wavefunction before ct-allowed iterations 0.0000000000
Beginning iterations for the determination of the CT-Allowed wavefunction
Energy prior to optimization (guess energy) = -800.610129232623
Begin Timing: Total SCF Calculation
begin iterations for algorithm: DIIS         
the SCF tolerance is set to 1.00e-08
    1    -800.6101292326      2.78e-04     00000 
    2    -800.6148253266      1.61e-05     00000 
    3    -800.6148507042      1.71e-05     00000 
    4    -800.6148726740      1.09e-05     00000 
    5    -800.6148824069      2.87e-06     00000 
    6    -800.6148831686      6.73e-07     00000 
    7    -800.6148832142      1.67e-07     00000 
    8    -800.6148832170      3.16e-08     00000 
    9    -800.6148832171      1.06e-08     00000 
   10    -800.6148832171      4.03e-09     00000 Convergence criterion met
write pseudocanon occs and virts to disk
write pseudocanon orbital energies to disk
Timing for Total SCF: 219.00s (wall), 1754.88s (cpu)
<S^2> of ct_allowed wavefunction after ct-allowed iterations 0.0000000000

================================
        Results of EDA2         
================================
Basic EDA Quantities
--------------------
Fragment Energies (Ha):
1 -409.9513763342
2 -390.6610887487
--------------------
  E_prp (kJ/mol) = 0.0000
  E_frz (kJ/mol) = 11.5741
  E_pol (kJ/mol) = -5.4412
  E_vct (kJ/mol) = -12.4817
  E_int (kJ/mol) = -6.3489
--------------------


Decomposition of frozen interaction energy
--------------------
  --------------------
  Classical Frozen Decomposition:
  --------------------
     E_cls_elec  (CLS ELEC)  (kJ/mol) = -21.9807
     E_mod_pauli (MOD PAULI) (kJ/mol) = 37.7874 (FRZ - CLS ELEC - CLS DISP)
     E_cls_disp  (CLS DISP)  (kJ/mol) = -4.2327
  --------------------
--------------------

Simplified EDA Summary (kJ/mol)
--------------------
 PREPARATION      0.0000
 FROZEN           11.5741 (ELEC + PAULI + DISP)
[ELEC + PAULI = 15.8067, DISP = -4.2327]
 POLARIZATION    -5.4412
 CHARGE TRANSFER -12.4817
 TOTAL           -6.3489     (PRP + FRZ + POL + CT)
--------------------
 
 --------------------------------------------------------------
 
                    Orbital Energies (a.u.)
 --------------------------------------------------------------
 
 Alpha MOs
 -- Occupied --
-66.1121 -14.3300 -10.2380 -10.1682 -10.1673 -10.1673  -6.8986  -5.2741
 -4.9255  -4.9101  -4.9100  -3.6328  -3.6314  -3.6314  -1.9735  -1.9681
 -1.9680  -1.9550  -1.9550  -0.9174  -0.7666  -0.7303  -0.6952  -0.6946
 -0.5137  -0.4889  -0.4354  -0.4253  -0.4252  -0.4090  -0.4088  -0.3993
 -0.3792  -0.3791  -0.3769  -0.3332  -0.3248  -0.3242  -0.2991  -0.2988
 -- Virtual --
 -0.0673  -0.0136  -0.0062  -0.0059   0.0034   0.0128   0.0147   0.0294
  0.0322   0.0369   0.0487   0.0526   0.0581   0.0609   0.0629   0.0744
  0.0746   0.0807   0.0882   0.0912   0.0936   0.1002   0.1034   0.1098
  0.1182   0.1233   0.1268   0.1313   0.1334   0.1536   0.1618   0.1645
  0.1687   0.1708   0.1847   0.1872   0.1943   0.1979   0.2061   0.2086
  0.2190   0.2303   0.2331   0.2339   0.2404   0.2423   0.2424   0.2477
  0.2538   0.2605   0.2624   0.2699   0.2730   0.2750   0.2780   0.2811
  0.2917   0.2920   0.2959   0.3016   0.3073   0.3179   0.3193   0.3268
  0.3283   0.3347   0.3377   0.3402   0.3498   0.3510   0.3540   0.3599
  0.3747   0.3755   0.3806   0.3807   0.3897   0.4013   0.4093   0.4173
  0.4177   0.4256   0.4313   0.4357   0.4399   0.4408   0.4470   0.4489
  0.4502   0.4623   0.4700   0.4762   0.4804   0.4804   0.4965   0.4976
  0.5050   0.5126   0.5219   0.5278   0.5283   0.5367   0.5492   0.5505
  0.5538   0.5716   0.5818   0.5834   0.6002   0.6004   0.6150   0.6311
  0.6379   0.6420   0.6553   0.6561   0.6571   0.6637   0.6795   0.6878
  0.6960   0.7014   0.7080   0.7121   0.7122   0.7191   0.7223   0.7329
  0.7357   0.7389   0.7536   0.7760   0.7810   0.7850   0.7851   0.7980
  0.8055   0.8099   0.8156   0.8336   0.8355   0.8438   0.8480   0.8553
  0.8712   0.8869   0.8939   0.8974   0.9003   0.9088   0.9489   0.9515
  0.9728   0.9935   1.0178   1.0349   1.0404   1.0442   1.0492   1.0627
  1.0661   1.0961   1.1243   1.1565   1.1678   1.1704   1.1765   1.1802
  1.1925   1.1972   1.2081   1.2088   1.2108   1.2200   1.2359   1.2437
  1.2536   1.2897   1.3143   1.3325   1.3438   1.3447   1.3502   1.3530
  1.3562   1.3731   1.3843   1.3956   1.4116   1.4212   1.4249   1.4494
  1.4536   1.4651   1.4780   1.4870   1.5100   1.5166   1.5308   1.5327
  1.5459   1.5491   1.5826   1.5995   1.6020   1.6056   1.6247   1.6277
  1.6386   1.6522   1.6599   1.6700   1.6834   1.7077   1.7085   1.7143
  1.7213   1.7352   1.7664   1.7740   1.7774   1.8096   1.8110   1.8313
  1.8407   1.8438   1.8675   1.8836   1.8885   1.9035   2.0265   2.0398
  2.0704   2.1007   2.2216   2.2330   2.2948   2.3265   2.4473   2.4670
  2.4846   2.4896   2.5077   2.6346   2.6348   2.6351   2.6447   2.7386
  2.7407   2.7646   2.7655   2.7698   2.7833   2.8195   2.8241   2.8302
  2.8430   2.8468   2.8632   2.8633   2.8736   2.8917   2.8936   2.9138
  2.9251   2.9393   2.9627   2.9932   2.9947   3.0013   3.0116   3.0457
  3.0531   3.0554   3.0589   3.0669   3.0798   3.0838   3.0851   3.0944
  3.0992   3.1204   3.1223   3.1536   3.1563   3.1588   3.1886   3.1999
  3.2099   3.2136   3.2150   3.2660   3.2712   3.3491   3.3732   3.3805
  3.4070   3.4094   3.4225   3.4344   3.4475   3.4585   3.4657   3.4797
  3.4892   3.4992   3.5011   3.5377   3.5462   3.5522   3.5773   3.5785
  3.5921   3.6148   3.6230   3.6332   3.6596   3.6907   3.6994   3.7133
  3.7277   3.7625   3.8081   3.8838   3.8994   3.9166   3.9619   3.9619
  3.9664   3.9679   3.9734   4.0033   4.0141   4.0262   4.0399   4.0410
  4.0881   4.1158   4.1159   4.1506   4.1567   4.1597   4.1792   4.1819
  4.2280   4.2660   4.2775   4.2792   4.2841   4.2889   4.3025   4.3087
  4.3432   4.3501   4.3672   4.4941   4.4943   4.5496   4.5529   4.5662
  4.5841   4.5842   4.5943   4.5987   4.6626   4.6919   4.7107   4.7193
  4.7200   4.8292   4.8422   4.8472   5.0104   5.0113   5.0151   5.0322
  5.0339   5.0575   5.0593   5.0828   5.1037   5.1048   5.1481   5.1574
  5.1662   5.1675   5.2236   5.2436   5.2478   5.3192   5.3212   5.3324
  5.3708   5.3710   5.4040   5.4483   5.4514   5.4602   5.4921   5.5048
  5.5652   5.6450   5.6589   5.6623   5.6756   5.6869   5.6895   5.8497
  6.7431   6.7574   6.8551  12.2130  22.8341  23.4967  23.4983  23.5183
 32.3214  34.5228  34.5616  34.8708  43.1298 117.8671
 --------------------------------------------------------------
 
          Ground-State Mulliken Net Atomic Charges

     Atom                 Charge (a.u.)
  ----------------------------------------
      1 H                    -0.208234
      2 Si                    0.320171
      3 C                    -0.390133
      4 H                     0.129119
      5 H                     0.110821
      6 H                     0.131781
      7 C                    -0.372703
      8 H                     0.103895
      9 H                     0.128104
     10 H                     0.103895
     11 C                    -0.390146
     12 H                     0.131776
     13 H                     0.129124
     14 H                     0.110828
     15 I                     0.244271
     16 C                    -0.023607
     17 N                    -0.258962
  ----------------------------------------
  Sum of atomic charges =     0.000000

 -----------------------------------------------------------------
                    Cartesian Multipole Moments
 -----------------------------------------------------------------
    Charge (ESU x 10^10)
                -0.0000
    Dipole Moment (Debye)
         X      -5.4616      Y      -0.0002      Z       0.5596
       Tot       5.4902
    Quadrupole Moments (Debye-Ang)
        XX     -89.9086     XY      -0.0010     YY     -72.8339
        XZ       4.1529     YZ       0.0002     ZZ     -73.4230
    Octopole Moments (Debye-Ang^2)
       XXX     -56.5881    XXY      -0.0058    XYY      22.4210
       YYY      -0.0042    XXZ      17.1425    XYZ       0.0005
       YYZ       8.3384    XZZ      20.3222    YZZ      -0.0004
       ZZZ      13.8171
    Hexadecapole Moments (Debye-Ang^3)
      XXXX   -3649.4921   XXXY      -0.0510   XXYY    -579.2700
      XYYY      -0.0210   YYYY    -360.8150   XXXZ     138.7861
      XXYZ       0.0042   XYYZ      -2.8328   YYYZ      -0.0013
      XXZZ    -582.1470   XYZZ      -0.0105   YYZZ    -113.8786
      XZZZ      25.8976   YZZZ      -0.0013   ZZZZ    -315.6181
 -----------------------------------------------------------------
 Total job time:  1489.95s(wall), 5558.58s(cpu) 
 Fri Nov 15 11:29:52 2024

        *************************************************************
        *                                                           *
        *  Thank you very much for using Q-Chem.  Have a nice day.  *
        *                                                           *
        *************************************************************


