                  Welcome to Q-Chem
     A Quantum Leap Into The Future Of Chemistry


 Q-Chem 6.2 (devel), Q-Chem, Inc., Pleasanton, CA (2024)

 E. Epifanovsky,  A. T. B. Gilbert,  Xintian Feng,  Joonho Lee,  Yuezhi Mao,  
 N. Mardirossian,  P. Pokhilko,  A. White,  M. Wormit,  M. P. Coons,  
 A. L. Dempwolff,  Zhengting Gan,  D. Hait,  P. R. Horn,  L. D. Jacobson,  
 I. Kaliman,  J. Kussmann,  A. W. Lange,  Ka Un Lao,  D. S. Levine,  Jie Liu,  
 S. C. McKenzie,  A. F. Morrison,  K. D. Nanda,  F. Plasser,  D. R. Rehn,  
 M. L. Vidal,  Zhi-Qiang You,  Ying Zhu,  Huseyin Aksu,  B. Alam,  
 B. Albrecht,  A. Aldossary,  E. Alguire,  J. H. Andersen,  
 J. E. Arias-Martinez,  V. Athavale,  D. Barton,  K. Begam,  A. Behn,  
 N. Bellonzi,  Y. A. Bernard,  E. J. Berquist,  H. Burton,  A. Carreras,  
 K. Carter-Fenk,  Mathew Chow,  Romit Chakraborty,  Chandrima Chakravarty,  
 Junhan Chen,  A. D. Chien,  K. D. Closser,  V. Cofer-Shabica,  L. Cunha,  
 S. Dasgupta,  Jia Deng,  Joseph Dickinson,  M. de Wergifosse,  
 M. Diedenhofen,  Hainam Do,  Wenjie Dou,  S. Ehlert,  Po-Tung Fang,  
 S. Fatehi,  Qingguo Feng,  Jonathan Fetherolf,  T. Friedhoff,  
 Thomas Froitzheim,  Sarai Folkestad,  B. Ganoe,  J. Gayvert,  Qinghui Ge,  
 G. Gidofalvi,  M. Gimferrer,  M. Goldey,  Montgomery Gray,  J. Gomes,  
 C. Gonzalez-Espinoza,  S. Gulania,  A. Gunina,  J. A. Gyamfi,  
 M. W. D. Hanson-Heine,  P. H. P. Harbach,  A. W. Hauser,  M. F. Herbst,  
 M. Hernandez Vera,  M. Hodecker,  Z. C. Holden,  S. Houck,  Xunkun Huang,  
 Kerwin Hui,  B. C. Huynh,  K. Ikeda,  M. Ivanov,  Nayanthara K. Jayadev,  
 Hyunjun Ji,  Zuxin Jin,  Hanjie Jiang,  Subrata Jana,  B. Kaduk,  
 S. Kaehler,  R. Kang,  K. Khistyaev,  Jaehoon Kim,  Yongbin Kim,  
 P. Klunzinger,  Z. Koczor-Benda,  Joong Hoon Koh,  D. Kosenkov,  
 Saikiran Kotaru,  L. Koulias,  T. Kowalczyk,  C. M. Krauter,  K. Kue,  
 A. Kunitsa,  T. Kus,  A. Landau,  K. V. Lawler,  D. Lefrancois,  S. Lehtola,  
 Rain Li,  Shaozhi Li,  Tao E. Li,  Yi-Pei Li,  Jiashu Liang,  M. Liebenthal,  
 Hung-Hsuan Lin,  You-Sheng Lin,  Fenglai Liu,  Kuan-Yu Liu,  Xiao Liu,  
 M. Loipersberger,  A. Luenser,  C. Malbon,  Aniket Mandal,  Manisha,  
 A. Manjanath,  P. Manohar,  E. Mansoor,  S. F. Manzer,  Shan-Ping Mao,  
 A. V. Marenich,  T. Markovich,  S. Mason,  F. Matz,  S. A. Maurer,  
 Samuel May,  Alexandra McIsaac,  P. F. McLaughlin,  M. F. S. J. Menger,  
 J.-M. Mewes,  S. A. Mewes,  P. Morgante,  Mohammad Mostafanejad,  
 Madhubani Mukherjee,  J. W. Mullinax,  Quyen Nguyen,  Avik Kumar Ojha,  
 K. J. Oosterbaan,  Eno Paenurk,  Xiaoliang Pan,  G. Paran,  V. Parravicini,  
 Alexander C. Paul,  Suranjan K. Paul,  F. Pavosevic,  Zheng Pei,  S. Prager,  
 E. I. Proynov,  E. Ramos,  B. Rana,  A. E. Rask,  A. Rettig,  R. M. Richard,  
 F. Rob,  E. Rossomme,  T. Scheele,  M. Scheurer,  M. Schneider,  
 P. E. Schneider,  Tim K. Schramm,  N. Sergueev,  S. M. Sharada,  
 Hengyuan Shen,  W. Skomorowski,  D. W. Small,  C. J. Stein,  
 Alistair J. Sterling,  Yingli Su,  Yu-Chuan Su,  E. J. Sundstrom,  
 J. Talbot,  Zhen Tao,  J. Thirman,  Hung-Yi Tsai,  T. Tsuchimochi,  
 N. M. Tubman,  C. Utku,  S. P. Veccham,  O. Vydrov,  Rahel Weiss,  
 J. Wenzel,  Jonathan Wong,  J. Witte,  H. Wu,  Yanze Wu,  A. Yamada,  
 Chou-Hsun Yang,  Kun Yao,  S. Yeganeh,  S. R. Yost,  Qi Yu,  A. Zech,  
 F. Zeller,  Chongxiao Zhao,  Igor Ying Zhang,  Xing Zhang,  Yu Zhang,  
 D. Zuev,  A. Aspuru-Guzik,  A. T. Bell,  N. A. Besley,  K. B. Bravaya,  
 B. R. Brooks,  D. Casanova,  Jeng-Da Chai,  Hsing-Ta Chen,  S. Coriani,  
 C. J. Cramer,  A. E. DePrince, III,  R. A. DiStasio Jr.,  A. Dreuw,  
 B. D. Dunietz,  T. R. Furlani,  W. A. Goddard III,  S. Grimme,  
 S. Hammes-Schiffer,  T. Head-Gordon,  W. J. Hehre,  Chao-Ping Hsu,  
 T.-C. Jagau,  Yousung Jung,  A. Klamt,  Jing Kong,  D. S. Lambrecht,  
 Xiangyuan Li,  WanZhen Liang,  N. J. Mayhall,  C. W. McCurdy,  J. B. Neaton,  
 T. Neudecker,  C. Ochsenfeld,  J. A. Parkhill,  R. Peverati,  
 V. A. Rassolov,  Haisheng Ren,  Yihan Shao,  L. V. Slipchenko,  
 R. P. Steele,  J. E. Subotnik,  A. J. W. Thom,  A. Tkatchenko,  
 D. G. Truhlar,  T. Van Voorhis,  Fan Wang,  T. A. Wesolowski,  K. B. Whaley,  
 H. L. Woodcock III,  P. M. Zimmerman,  S. Faraji,  P. M. W. Gill,  
 M. Head-Gordon,  J. M. Herbert,  A. I. Krylov

 Contributors to earlier versions of Q-Chem not listed above: 
 R. D. Adamson,  B. Austin,  R. Baer,  J. Baker,  G. J. O. Beran,  
 K. Brandhorst,  S. T. Brown,  E. F. C. Byrd,  Arup K. Chakraborty,  
 G. K. L. Chan,  Chun-Min Chang,  Yunqing Chen,  C.-L. Cheng,  
 Siu Hung Chien,  D. M. Chipman,  D. L. Crittenden,  H. Dachsel,  
 R. J. Doerksen,  A. D. Dutoi,  R. G. Edgar,  J. Fosso-Tande,  
 L. Fusti-Molnar,  D. Ghosh,  A. Ghysels,  A. Golubeva-Zadorozhnaya,  
 J. Gonthier,  M. S. Gordon,  S. R. Gwaltney,  G. Hawkins,  J. E. Herr,  
 A. Heyden,  S. Hirata,  E. G. Hohenstein,  G. Kedziora,  F. J. Keil,  
 C. Kelley,  Jihan Kim,  R. A. King,  R. Z. Khaliullin,  P. P. Korambath,  
 W. Kurlancheek,  A. Laurent,  A. M. Lee,  M. S. Lee,  S. V. Levchenko,  
 Ching Yeh Lin,  D. Liotard,  E. Livshits,  R. C. Lochan,  I. Lotan,  
 L. A. Martinez-Martinez,  P. E. Maslen,  N. Nair,  D. P. O'Neill,  
 D. Neuhauser,  E. Neuscamman,  C. M. Oana,  R. Olivares-Amaya,  R. Olson,  
 T. M. Perrine,  B. Peters,  P. A. Pieniazek,  A. Prociuk,  Y. M. Rhee,  
 J. Ritchie,  M. A. Rohrdanz,  E. Rosta,  N. J. Russ,  H. F. Schaefer III,  
 M. W. Schmidt,  N. E. Schultz,  S. Sharma,  N. Shenvi,  C. D. Sherrill,  
 A. C. Simmonett,  A. Sodt,  T. Stein,  D. Stuck,  K. S. Thanthiriwatte,  
 V. Vanovschi,  L. Vogt,  Tao Wang,  A. Warshel,  M. A. Watson,  
 C. F. Williams,  Q. Wu,  X. Xu,  Jun Yang,  W. Zhang,  Yan Zhao

   Please cite Q-Chem as follows:
  "Software for the frontiers of quantum chemistry:
   An overview of developments in the Q-Chem 5 package"
   J. Chem. Phys. 155, 084801 (2021)
   https://doi.org/10.1063/5.0055522 (open access)

 Q-Chem 6.2.0 for Intel X86 EM64T Linux

 Parts of Q-Chem use Armadillo 9.900.5 (Nocturnal Misbehaviour).
 http://arma.sourceforge.net/

 Q-Chem begins on Wed May 29 16:10:42 2024  

 Host: 
0

     Scratch files written to /data/scratch/cf3h_opt_freq20240529161040//
 Processing $rem in /home/ymao/my_qchem/qchem_ymao_quick_fix/config/preferences:
 Processing $rem in /home/ymao/.qchemrc:

 Checking the input file for inconsistencies... 	...done.

--------------------------------------------------------------
User input:
--------------------------------------------------------------
$molecule
0 1
H    0.59878    -0.04551   0.00000   
C    -0.49895   -0.00740   0.00000   
F    -1.02270   -1.24292   0.00000   
F    -0.95441   0.63633    1.08615   
F    -0.95441   0.63633    -1.08615  
$end

$rem
JOBTYPE  OPT
GEN_SCFMAN  TRUE
METHOD  WB97X-V
BASIS  DEF2-SVPD
UNRESTRICTED  FALSE
MAX_SCF_CYCLES  2000
THRESH  14
SCF_CONVERGENCE  9
MEM_TOTAL  8000
MEM_STATIC  2000
SYMMETRY  FALSE
SYM_IGNORE  FALSE
SCF_ALGORITHM  DIIS
BASIS_LIN_DEP_THRESH  6
IDERIV  1
XC_GRID  000075000302
NL_GRID  1
FD_MAT_VEC_PROD  FALSE
GEOM_OPT_TOL_GRADIENT  50
GEOM_OPT_TOL_DISPLACEMENT  50
GEOM_OPT_TOL_ENERGY  10
GEOM_OPT_DRIVER  OPTIMIZE
GEOM_OPT_MAX_CYCLES  200
$end

--------------------------------------------------------------
 ----------------------------------------------------------------
             Standard Nuclear Orientation (Angstroms)
    I     Atom           X                Y                Z
 ----------------------------------------------------------------
    1      H       1.4460983943     0.0020041508    -0.0000000000
    2      C       0.3477087914     0.0000534067     0.0000000000
    3      F      -0.1306320236    -1.2537463371     0.0000000000
    4      F      -0.1309257183     0.6267440246     1.0861500000
    5      F      -0.1309257183     0.6267440246    -1.0861500000
 ----------------------------------------------------------------
 Molecular Point Group                 Cs    NOp =  2
 Largest Abelian Subgroup              Cs    NOp =  2
 Nuclear Repulsion Energy =         133.06366063 hartrees
 There are       17 alpha and       17 beta electrons
 Requested basis set is def2-SVPD
 There are 39 shells and 97 basis functions

 Total QAlloc Memory Limit   8000 MB
 Mega-Array Size      1956 MB
 MEM_STATIC part      2000 MB

 A cutoff of  1.0D-14 yielded    777 shell pairs
 There are      4869 function pairs (      5721 Cartesian)
 Smallest overlap matrix eigenvalue = 7.56E-04

 Scale SEOQF with 1.000000e-01/1.000000e-01/1.000000e-01

 Standard Electronic Orientation quadrupole field applied
 Nucleus-field energy     =    -0.0000000006 hartrees
 Guess from superposition of atomic densities
 Warning:  Energy on first SCF cycle will be non-variational
 SAD guess density has 34.000000 electrons

 -----------------------------------------------------------------------
  General SCF calculation program by
  Eric Jon Sundstrom, Paul Horn, Yuezhi Mao, Dmitri Zuev, Alec White,
  David Stuck, Shaama M.S., Shane Yost, Joonho Lee, David Small,
  Daniel Levine, Susi Lehtola, Hugh Burton, Evgeny Epifanovsky,
  Bang C. Huynh
 -----------------------------------------------------------------------
 Exchange:     0.1670 Hartree-Fock + 1.0000 wB97X-V + LR-HF
 Correlation:  1.0000 wB97X-V
 Using Euler-Maclaurin-Lebedev (75,302) quadrature formula
 Nonlocal Correlation:  VV10 with C = 0.0100 and b = 6.00 and scale = 1.00000
 Grid used for NLC:  SG-1 standard quadrature
 using 8 threads for integral computing
 -------------------------------------------------------
 OpenMP Integral computing Module                
 Release: version 1.0, May 2013, Q-Chem Inc. Pittsburgh 
 -------------------------------------------------------
 A restricted SCF calculation will be
 performed using DIIS
 SCF converges when DIIS error is below 1.0e-09
 ---------------------------------------
  Cycle       Energy         DIIS error
 ---------------------------------------
    1    -338.4230222362      5.71e-02  
    2    -337.7890032585      1.09e-02  
    3    -337.8036724066      1.12e-02  
    4    -337.8955985871      6.66e-04  
    5    -337.8959799402      2.05e-04  
    6    -337.8960280755      2.47e-05  
    7    -337.8960293943      4.86e-06  
    8    -337.8960294699      9.44e-07  
    9    -337.8960294712      7.48e-07  
   10    -337.8960294716      5.70e-08  
   11    -337.8960294716      6.02e-09  
   12    -337.8960294716      1.07e-09  
   13    -337.8960294716      2.23e-10  Convergence criterion met
 ---------------------------------------
 SCF time:   CPU 53.03s  wall 6.00s 
 SCF   energy =  -337.89602947
 Total energy =  -337.89602947
 
 --------------------------------------------------------------
             Orbital Energies (a.u.) and Symmetries
 --------------------------------------------------------------
 
 Alpha MOs, Restricted
 -- Occupied --                  
-24.822 -24.821 -24.821 -10.552  -1.446  -1.353  -1.353  -0.850
  1 A'    2 A'    1 A"    3 A'    4 A'    5 A'    2 A"    6 A'                 
 -0.740  -0.723  -0.723  -0.600  -0.600  -0.561  -0.561  -0.539
  7 A'    8 A'    3 A"    4 A"    9 A'   10 A'    5 A"    6 A"                 
 -0.520
 11 A'                                                                         
 -- Virtual --                   
  0.085   0.132   0.138   0.139   0.205   0.205   0.218   0.222
 12 A'   13 A'   14 A'    7 A"    8 A"   15 A'   16 A'   17 A'                 
  0.222   0.254   0.255   0.292   0.318   0.320   0.379   0.379
  9 A"   18 A'   10 A"   19 A'   20 A'   11 A"   12 A"   21 A'                 
  0.380   0.452   0.465   0.465   0.474   0.482   0.482   0.591
 22 A'   23 A'   24 A'   13 A"   25 A'   14 A"   26 A'   27 A'                 
  0.591   0.683   0.713   0.713   0.724   0.779   0.779   0.779
 15 A"   28 A'   29 A'   16 A"   30 A'   17 A"   31 A'   32 A'                 
  0.835   0.839   0.839   0.875   0.875   0.937   0.957   0.957
 18 A"   19 A"   33 A'   20 A"   34 A'   21 A"   22 A"   35 A'                 
  1.051   1.096   1.096   1.133   1.208   1.594   1.594   1.741
 36 A'   23 A"   37 A'   38 A'   39 A'   40 A'   24 A"   41 A'                 
  1.741   1.803   1.803   1.835   1.848   2.049   2.095   2.152
 25 A"   42 A'   26 A"   27 A"   43 A'   44 A'   45 A'   28 A"                 
  2.152   2.190   2.191   2.288   2.289   2.383   2.384   2.385
 46 A'   29 A"   47 A'   30 A"   48 A'   49 A'   31 A"   50 A'                 
  2.950   3.340   3.403   3.411   3.411   3.419   3.419   3.458
 51 A'   32 A"   33 A"   52 A'   34 A"   53 A'   35 A"   54 A'                 
  3.468   3.469   3.596   3.768   3.768   3.850   4.045   4.045
 36 A"   55 A'   56 A'   57 A'   37 A"   58 A'   38 A"   59 A'                 
 
 Beta MOs, Restricted
 -- Occupied --                  
-24.822 -24.821 -24.821 -10.552  -1.446  -1.353  -1.353  -0.850
  1 A'    2 A'    1 A"    3 A'    4 A'    5 A'    2 A"    6 A'                 
 -0.740  -0.723  -0.723  -0.600  -0.600  -0.561  -0.561  -0.539
  7 A'    8 A'    3 A"    4 A"    9 A'   10 A'    5 A"    6 A"                 
 -0.520
 11 A'                                                                         
 -- Virtual --                   
  0.085   0.132   0.138   0.139   0.205   0.205   0.218   0.222
 12 A'   13 A'   14 A'    7 A"    8 A"   15 A'   16 A'   17 A'                 
  0.222   0.254   0.255   0.292   0.318   0.320   0.379   0.379
  9 A"   18 A'   10 A"   19 A'   20 A'   11 A"   12 A"   21 A'                 
  0.380   0.452   0.465   0.465   0.474   0.482   0.482   0.591
 22 A'   23 A'   24 A'   13 A"   25 A'   14 A"   26 A'   27 A'                 
  0.591   0.683   0.713   0.713   0.724   0.779   0.779   0.779
 15 A"   28 A'   29 A'   16 A"   30 A'   17 A"   31 A'   32 A'                 
  0.835   0.839   0.839   0.875   0.875   0.937   0.957   0.957
 18 A"   19 A"   33 A'   20 A"   34 A'   21 A"   22 A"   35 A'                 
  1.051   1.096   1.096   1.133   1.208   1.594   1.594   1.741
 36 A'   23 A"   37 A'   38 A'   39 A'   40 A'   24 A"   41 A'                 
  1.741   1.803   1.803   1.835   1.848   2.049   2.095   2.152
 25 A"   42 A'   26 A"   27 A"   43 A'   44 A'   45 A'   28 A"                 
  2.152   2.190   2.191   2.288   2.289   2.383   2.384   2.385
 46 A'   29 A"   47 A'   30 A"   48 A'   49 A'   31 A"   50 A'                 
  2.950   3.340   3.403   3.411   3.411   3.419   3.419   3.458
 51 A'   32 A"   33 A"   52 A'   34 A"   53 A'   35 A"   54 A'                 
  3.468   3.469   3.596   3.768   3.768   3.850   4.045   4.045
 36 A"   55 A'   56 A'   57 A'   37 A"   58 A'   38 A"   59 A'                 
 --------------------------------------------------------------
 
          Ground-State Mulliken Net Atomic Charges

     Atom                 Charge (a.u.)
  ----------------------------------------
      1 H                    -0.233936
      2 C                     1.389043
      3 F                    -0.384770
      4 F                    -0.385168
      5 F                    -0.385168
  ----------------------------------------
  Sum of atomic charges =     0.000000

 -----------------------------------------------------------------
                    Cartesian Multipole Moments
 -----------------------------------------------------------------
    Charge (ESU x 10^10)
                -0.0000
    Dipole Moment (Debye)
         X       1.7219      Y      -0.0002      Z      -0.0000
       Tot       1.7219
    Quadrupole Moments (Debye-Ang)
        XX     -18.8690     XY       0.0034     YY     -22.6550
        XZ       0.0000     YZ      -0.0000     ZZ     -22.6588
    Octopole Moments (Debye-Ang^2)
       XXX       0.3586    XXY       0.0033    XYY      -0.7221
       YYY       1.1183    XXZ      -0.0000    XYZ       0.0000
       YYZ      -0.0000    XZZ      -0.7211    YZZ      -1.1263
       ZZZ       0.0000
    Hexadecapole Moments (Debye-Ang^3)
      XXXX     -24.9814   XXXY       0.0081   XXYY     -19.0120
      XYYY       0.4932   YYYY     -87.0273   XXXZ       0.0000
      XXYZ      -0.0000   XYYZ      -0.0000   YYYZ       0.0000
      XXZZ     -19.0227   XYZZ      -0.4927   YYZZ     -29.0212
      XZZZ       0.0000   YZZZ      -0.0000   ZZZZ     -87.0943
 -----------------------------------------------------------------
 Calculating analytic gradient of the SCF energy
 Gradient of SCF Energy
            1           2           3           4           5
    1  -0.0006070   0.0097279  -0.0031570  -0.0029819  -0.0029819
    2   0.0001936  -0.0002669  -0.0023738   0.0012236   0.0012236
    3   0.0000000  -0.0000000  -0.0000000   0.0021880  -0.0021880
 Max gradient component =       9.728E-03
 RMS gradient           =       3.067E-03
 Gradient time:  CPU 11.25 s  wall 1.42 s
 Geometry Optimization Parameters
   NAtoms,    NIC,     NZ,  NCons,   NDum,   NFix, NCnnct, MaxDiis
        5      20       0       0       0       0       0       0


** GEOMETRY OPTIMIZATION IN DELOCALIZED INTERNAL COORDINATES **
   Searching for a Minimum

   Optimization Cycle:   1

                       Coordinates (Angstroms)
     ATOM                X               Y               Z
      1  H         1.4460983943    0.0020041508    0.0000000000
      2  C         0.3477087914    0.0000534067    0.0000000000
      3  F        -0.1306320236   -1.2537463371    0.0000000000
      4  F        -0.1309257183    0.6267440246    1.0861500000
      5  F        -0.1309257183    0.6267440246   -1.0861500000
   Point Group: cs    Number of degrees of freedom:     6


   Energy is   -337.896029472


 Attempting to generate delocalized internal coordinates
 Initial Hessian constructed with Jon Baker's OPTIMIZE code

  6 Hessian modes will be used to form the next step
  Hessian Eigenvalues:
     0.160000    0.207232    0.250000    0.338606    0.567104    0.567707

 Minimum search - taking simple RFO step
 Searching for Lamda that Minimizes Along All modes
 Value Taken    Lamda =  -0.00023268
 Step Taken.  Stepsize is  0.030584

                             Maximum     Tolerance    Cnvgd?
         Gradient           0.006119      0.000050      NO
         Displacement       0.021122      0.000050      NO
         Energy change     *********      0.000000      NO


 New Cartesian Coordinates Obtained by Inverse Iteration

 Displacement from previous Coordinates is:  0.032255
 ----------------------------------------------------------------
             Standard Nuclear Orientation (Angstroms)
    I     Atom           X                Y                Z
 ----------------------------------------------------------------
    1      H       1.4375568510     0.0010361966     0.0000000000
    2      C       0.3382182364     0.0004118367     0.0000000000
    3      F      -0.1239107106    -1.2561355801     0.0000000000
    4      F      -0.1252703257     0.6282434082     1.0881373492
    5      F      -0.1252703257     0.6282434082    -1.0881373492
 ----------------------------------------------------------------
 Molecular Point Group                 Cs    NOp =  2
 Largest Abelian Subgroup              Cs    NOp =  2
 Nuclear Repulsion Energy =         133.13135174 hartrees
 There are       17 alpha and       17 beta electrons
 Applying Cartesian multipole field
    Component          Value
    ---------          -----
     (2,0,0)        1.00000E-11
     (0,2,0)        2.00000E-11
     (0,0,2)       -3.00000E-11
 Nucleus-field energy     =    -0.0000000006 hartrees
 Requested basis set is def2-SVPD
 There are 39 shells and 97 basis functions
 A cutoff of  1.0D-14 yielded    777 shell pairs
 There are      4869 function pairs (      5721 Cartesian)
 Smallest overlap matrix eigenvalue = 7.54E-04
 Guess MOs from SCF MO coefficient file

 -----------------------------------------------------------------------
  General SCF calculation program by
  Eric Jon Sundstrom, Paul Horn, Yuezhi Mao, Dmitri Zuev, Alec White,
  David Stuck, Shaama M.S., Shane Yost, Joonho Lee, David Small,
  Daniel Levine, Susi Lehtola, Hugh Burton, Evgeny Epifanovsky,
  Bang C. Huynh
 -----------------------------------------------------------------------
 Exchange:     0.1670 Hartree-Fock + 1.0000 wB97X-V + LR-HF
 Correlation:  1.0000 wB97X-V
 Using Euler-Maclaurin-Lebedev (75,302) quadrature formula
 Nonlocal Correlation:  VV10 with C = 0.0100 and b = 6.00 and scale = 1.00000
 Grid used for NLC:  SG-1 standard quadrature
 A restricted SCF calculation will be
 performed using DIIS
 SCF converges when DIIS error is below 1.0e-09
 ---------------------------------------
  Cycle       Energy         DIIS error
 ---------------------------------------
    1    -337.8959190995      4.46e-04  
    2    -337.8960888814      6.76e-05  
    3    -337.8960997984      2.41e-05  
    4    -337.8961005730      1.42e-05  
    5    -337.8961007656      2.87e-06  
    6    -337.8961007742      5.31e-07  
    7    -337.8961007747      9.45e-08  
    8    -337.8961007747      6.14e-08  
    9    -337.8961007747      8.52e-09  
   10    -337.8961007747      9.21e-10  Convergence criterion met
 ---------------------------------------
 SCF time:   CPU 41.41s  wall 6.00s 
 SCF   energy =  -337.89610077
 Total energy =  -337.89610077
 
 --------------------------------------------------------------
             Orbital Energies (a.u.) and Symmetries
 --------------------------------------------------------------
 
 Alpha MOs, Restricted
 -- Occupied --                  
-24.822 -24.822 -24.822 -10.551  -1.447  -1.355  -1.355  -0.850
  1 A'    2 A'    1 A"    3 A'    4 A'    5 A'    2 A"    6 A'                 
 -0.741  -0.725  -0.725  -0.601  -0.601  -0.563  -0.563  -0.541
  7 A'    8 A'    3 A"    4 A"    9 A'   10 A'    5 A"    6 A"                 
 -0.517
 11 A'                                                                         
 -- Virtual --                   
  0.085   0.132   0.139   0.139   0.205   0.205   0.219   0.222
 12 A'   13 A'    7 A"   14 A'    8 A"   15 A'   16 A'    9 A"                 
  0.222   0.257   0.257   0.293   0.313   0.320   0.380   0.380
 17 A'   10 A"   18 A'   19 A'   20 A'   11 A"   12 A"   21 A'                 
  0.382   0.450   0.465   0.465   0.474   0.483   0.483   0.591
 22 A'   23 A'   13 A"   24 A'   25 A'   14 A"   26 A'   27 A'                 
  0.591   0.684   0.713   0.713   0.724   0.778   0.778   0.784
 15 A"   28 A'   16 A"   29 A'   30 A'   31 A'   17 A"   32 A'                 
  0.834   0.838   0.838   0.876   0.876   0.938   0.960   0.960
 18 A"   33 A'   19 A"   20 A"   34 A'   21 A"   35 A'   22 A"                 
  1.051   1.094   1.094   1.133   1.203   1.596   1.596   1.741
 36 A'   23 A"   37 A'   38 A'   39 A'   24 A"   40 A'   25 A"                 
  1.741   1.804   1.804   1.831   1.851   2.058   2.092   2.152
 41 A'   26 A"   42 A'   27 A"   43 A'   44 A'   45 A'   28 A"                 
  2.152   2.197   2.197   2.286   2.286   2.378   2.385   2.385
 46 A'   29 A"   47 A'   48 A'   30 A"   49 A'   50 A'   31 A"                 
  2.952   3.340   3.402   3.410   3.410   3.422   3.422   3.460
 51 A'   32 A"   33 A"   52 A'   34 A"   53 A'   35 A"   54 A'                 
  3.470   3.470   3.585   3.772   3.772   3.864   4.046   4.046
 55 A'   36 A"   56 A'   57 A'   37 A"   58 A'   38 A"   59 A'                 
 
 Beta MOs, Restricted
 -- Occupied --                  
-24.822 -24.822 -24.822 -10.551  -1.447  -1.355  -1.355  -0.850
  1 A'    2 A'    1 A"    3 A'    4 A'    5 A'    2 A"    6 A'                 
 -0.741  -0.725  -0.725  -0.601  -0.601  -0.563  -0.563  -0.541
  7 A'    8 A'    3 A"    4 A"    9 A'   10 A'    5 A"    6 A"                 
 -0.517
 11 A'                                                                         
 -- Virtual --                   
  0.085   0.132   0.139   0.139   0.205   0.205   0.219   0.222
 12 A'   13 A'    7 A"   14 A'    8 A"   15 A'   16 A'    9 A"                 
  0.222   0.257   0.257   0.293   0.313   0.320   0.380   0.380
 17 A'   10 A"   18 A'   19 A'   20 A'   11 A"   12 A"   21 A'                 
  0.382   0.450   0.465   0.465   0.474   0.483   0.483   0.591
 22 A'   23 A'   13 A"   24 A'   25 A'   14 A"   26 A'   27 A'                 
  0.591   0.684   0.713   0.713   0.724   0.778   0.778   0.784
 15 A"   28 A'   16 A"   29 A'   30 A'   31 A'   17 A"   32 A'                 
  0.834   0.838   0.838   0.876   0.876   0.938   0.960   0.960
 18 A"   33 A'   19 A"   20 A"   34 A'   21 A"   35 A'   22 A"                 
  1.051   1.094   1.094   1.133   1.203   1.596   1.596   1.741
 36 A'   23 A"   37 A'   38 A'   39 A'   24 A"   40 A'   25 A"                 
  1.741   1.804   1.804   1.831   1.851   2.058   2.092   2.152
 41 A'   26 A"   42 A'   27 A"   43 A'   44 A'   45 A'   28 A"                 
  2.152   2.197   2.197   2.286   2.286   2.378   2.385   2.385
 46 A'   29 A"   47 A'   48 A'   30 A"   49 A'   50 A'   31 A"                 
  2.952   3.340   3.402   3.410   3.410   3.422   3.422   3.460
 51 A'   32 A"   33 A"   52 A'   34 A"   53 A'   35 A"   54 A'                 
  3.470   3.470   3.585   3.772   3.772   3.864   4.046   4.046
 55 A'   36 A"   56 A'   57 A'   37 A"   58 A'   38 A"   59 A'                 
 --------------------------------------------------------------
 
          Ground-State Mulliken Net Atomic Charges

     Atom                 Charge (a.u.)
  ----------------------------------------
      1 H                    -0.234424
      2 C                     1.386353
      3 F                    -0.383872
      4 F                    -0.384028
      5 F                    -0.384028
  ----------------------------------------
  Sum of atomic charges =     0.000000

 -----------------------------------------------------------------
                    Cartesian Multipole Moments
 -----------------------------------------------------------------
    Charge (ESU x 10^10)
                 0.0000
    Dipole Moment (Debye)
         X       1.6446      Y       0.0003      Z       0.0000
       Tot       1.6446
    Quadrupole Moments (Debye-Ang)
        XX     -18.9477     XY       0.0027     YY     -22.6332
        XZ       0.0000     YZ       0.0000     ZZ     -22.6345
    Octopole Moments (Debye-Ang^2)
       XXX       0.0975    XXY      -0.0035    XYY      -0.7542
       YYY       1.0956    XXZ       0.0000    XYZ       0.0000
       YYZ       0.0000    XZZ      -0.7527    YZZ      -1.1182
       ZZZ      -0.0000
    Hexadecapole Moments (Debye-Ang^3)
      XXXX     -24.8792   XXXY       0.0232   XXYY     -19.0185
      XYYY       0.4921   YYYY     -87.1696   XXXZ      -0.0000
      XXYZ       0.0000   XYYZ      -0.0000   YYYZ       0.0000
      XXZZ     -19.0219   XYZZ      -0.4629   YYZZ     -29.0633
      XZZZ      -0.0000   YZZZ       0.0000   ZZZZ     -87.2000
 -----------------------------------------------------------------
 Calculating analytic gradient of the SCF energy
 Gradient of SCF Energy
            1           2           3           4           5
    1  -0.0004909  -0.0019369   0.0008512   0.0007883   0.0007883
    2  -0.0000315  -0.0001124  -0.0014577   0.0008008   0.0008008
    3  -0.0000000  -0.0000000   0.0000000   0.0014147  -0.0014147
 Max gradient component =       1.937E-03
 RMS gradient           =       9.446E-04
 Gradient time:  CPU 10.70 s  wall 1.36 s
 Geometry Optimization Parameters
   NAtoms,    NIC,     NZ,  NCons,   NDum,   NFix, NCnnct, MaxDiis
        5      20       0       0       0       0       0       0

 Cartesian Hessian Update
 Hessian updated using BFGS update


** GEOMETRY OPTIMIZATION IN DELOCALIZED INTERNAL COORDINATES **
   Searching for a Minimum

   Optimization Cycle:   2

                       Coordinates (Angstroms)
     ATOM                X               Y               Z
      1  H         1.4375568510    0.0010361966    0.0000000000
      2  C         0.3382182364    0.0004118367    0.0000000000
      3  F        -0.1239107106   -1.2561355801    0.0000000000
      4  F        -0.1252703257    0.6282434082    1.0881373492
      5  F        -0.1252703257    0.6282434082   -1.0881373492
   Point Group: cs    Number of degrees of freedom:     6


   Energy is   -337.896100775

 Hessian updated using BFGS update

  6 Hessian modes will be used to form the next step
  Hessian Eigenvalues:
     0.159850    0.249950    0.326124    0.359367    0.474617    0.567648

 Minimum search - taking simple RFO step
 Searching for Lamda that Minimizes Along All modes
 Value Taken    Lamda =  -0.00005088
 Step Taken.  Stepsize is  0.011390

                             Maximum     Tolerance    Cnvgd?
         Gradient           0.004191      0.000050      NO
         Displacement       0.010732      0.000050      NO
         Energy change     -0.000071      0.000000      NO


 New Cartesian Coordinates Obtained by Inverse Iteration

 Displacement from previous Coordinates is:  0.014928
 ----------------------------------------------------------------
             Standard Nuclear Orientation (Angstroms)
    I     Atom           X                Y                Z
 ----------------------------------------------------------------
    1      H       1.4410756381     0.0010287348     0.0000000000
    2      C       0.3410853708     0.0004155568     0.0000000000
    3      F      -0.1260340584    -1.2531632294     0.0000000000
    4      F      -0.1274016125     0.6267591037     1.0854017428
    5      F      -0.1274016125     0.6267591037    -1.0854017428
 ----------------------------------------------------------------
 Molecular Point Group                 Cs    NOp =  2
 Largest Abelian Subgroup              Cs    NOp =  2
 Nuclear Repulsion Energy =         133.31967489 hartrees
 There are       17 alpha and       17 beta electrons
 Applying Cartesian multipole field
    Component          Value
    ---------          -----
     (2,0,0)        1.00000E-11
     (0,2,0)        2.00000E-11
     (0,0,2)       -3.00000E-11
 Nucleus-field energy     =    -0.0000000006 hartrees
 Requested basis set is def2-SVPD
 There are 39 shells and 97 basis functions
 A cutoff of  1.0D-14 yielded    777 shell pairs
 There are      4869 function pairs (      5721 Cartesian)
 Smallest overlap matrix eigenvalue = 7.56E-04
 Guess MOs from SCF MO coefficient file

 -----------------------------------------------------------------------
  General SCF calculation program by
  Eric Jon Sundstrom, Paul Horn, Yuezhi Mao, Dmitri Zuev, Alec White,
  David Stuck, Shaama M.S., Shane Yost, Joonho Lee, David Small,
  Daniel Levine, Susi Lehtola, Hugh Burton, Evgeny Epifanovsky,
  Bang C. Huynh
 -----------------------------------------------------------------------
 Exchange:     0.1670 Hartree-Fock + 1.0000 wB97X-V + LR-HF
 Correlation:  1.0000 wB97X-V
 Using Euler-Maclaurin-Lebedev (75,302) quadrature formula
 Nonlocal Correlation:  VV10 with C = 0.0100 and b = 6.00 and scale = 1.00000
 Grid used for NLC:  SG-1 standard quadrature
 A restricted SCF calculation will be
 performed using DIIS
 SCF converges when DIIS error is below 1.0e-09
 ---------------------------------------
  Cycle       Energy         DIIS error
 ---------------------------------------
    1    -337.8960987626      1.70e-04  
    2    -337.8961225512      2.81e-05  
    3    -337.8961240429      1.65e-05  
    4    -337.8961242945      5.89e-06  
    5    -337.8961243371      1.39e-06  
    6    -337.8961243392      1.63e-07  
    7    -337.8961243393      2.06e-08  
    8    -337.8961243393      8.40e-09  
    9    -337.8961243393      3.73e-09  
   10    -337.8961243393      3.84e-10  Convergence criterion met
 ---------------------------------------
 SCF time:   CPU 41.46s  wall 5.00s 
 SCF   energy =  -337.89612434
 Total energy =  -337.89612434
 
 --------------------------------------------------------------
             Orbital Energies (a.u.) and Symmetries
 --------------------------------------------------------------
 
 Alpha MOs, Restricted
 -- Occupied --                  
-24.822 -24.822 -24.822 -10.551  -1.448  -1.355  -1.355  -0.850
  1 A'    2 A'    1 A"    3 A'    4 A'    5 A'    2 A"    6 A'                 
 -0.741  -0.725  -0.725  -0.601  -0.601  -0.563  -0.563  -0.540
  7 A'    8 A'    3 A"    9 A'    4 A"   10 A'    5 A"    6 A"                 
 -0.518
 11 A'                                                                         
 -- Virtual --                   
  0.085   0.132   0.139   0.139   0.205   0.205   0.219   0.222
 12 A'   13 A'    7 A"   14 A'    8 A"   15 A'   16 A'    9 A"                 
  0.222   0.257   0.257   0.292   0.317   0.320   0.381   0.381
 17 A'   10 A"   18 A'   19 A'   20 A'   11 A"   12 A"   21 A'                 
  0.382   0.451   0.465   0.465   0.474   0.483   0.483   0.591
 22 A'   23 A'   13 A"   24 A'   25 A'   14 A"   26 A'   15 A"                 
  0.591   0.684   0.713   0.713   0.724   0.778   0.778   0.782
 27 A'   28 A'   16 A"   29 A'   30 A'   31 A'   17 A"   32 A'                 
  0.835   0.838   0.838   0.876   0.876   0.937   0.959   0.959
 18 A"   33 A'   19 A"   34 A'   20 A"   21 A"   35 A'   22 A"                 
  1.051   1.096   1.096   1.134   1.205   1.596   1.596   1.743
 36 A'   23 A"   37 A'   38 A'   39 A'   24 A"   40 A'   25 A"                 
  1.743   1.804   1.804   1.836   1.850   2.055   2.094   2.153
 41 A'   26 A"   42 A'   27 A"   43 A'   44 A'   45 A'   28 A"                 
  2.153   2.198   2.198   2.285   2.285   2.377   2.385   2.385
 46 A'   29 A"   47 A'   48 A'   30 A"   49 A'   50 A'   31 A"                 
  2.951   3.338   3.402   3.410   3.410   3.421   3.421   3.460
 51 A'   32 A"   33 A"   52 A'   34 A"   35 A"   53 A'   54 A'                 
  3.470   3.470   3.592   3.775   3.775   3.863   4.048   4.048
 55 A'   36 A"   56 A'   37 A"   57 A'   58 A'   38 A"   59 A'                 
 
 Beta MOs, Restricted
 -- Occupied --                  
-24.822 -24.822 -24.822 -10.551  -1.448  -1.355  -1.355  -0.850
  1 A'    2 A'    1 A"    3 A'    4 A'    5 A'    2 A"    6 A'                 
 -0.741  -0.725  -0.725  -0.601  -0.601  -0.563  -0.563  -0.540
  7 A'    8 A'    3 A"    9 A'    4 A"   10 A'    5 A"    6 A"                 
 -0.518
 11 A'                                                                         
 -- Virtual --                   
  0.085   0.132   0.139   0.139   0.205   0.205   0.219   0.222
 12 A'   13 A'    7 A"   14 A'    8 A"   15 A'   16 A'    9 A"                 
  0.222   0.257   0.257   0.292   0.317   0.320   0.381   0.381
 17 A'   10 A"   18 A'   19 A'   20 A'   11 A"   12 A"   21 A'                 
  0.382   0.451   0.465   0.465   0.474   0.483   0.483   0.591
 22 A'   23 A'   13 A"   24 A'   25 A'   14 A"   26 A'   15 A"                 
  0.591   0.684   0.713   0.713   0.724   0.778   0.778   0.782
 27 A'   28 A'   16 A"   29 A'   30 A'   31 A'   17 A"   32 A'                 
  0.835   0.838   0.838   0.876   0.876   0.937   0.959   0.959
 18 A"   33 A'   19 A"   34 A'   20 A"   21 A"   35 A'   22 A"                 
  1.051   1.096   1.096   1.134   1.205   1.596   1.596   1.743
 36 A'   23 A"   37 A'   38 A'   39 A'   24 A"   40 A'   25 A"                 
  1.743   1.804   1.804   1.836   1.850   2.055   2.094   2.153
 41 A'   26 A"   42 A'   27 A"   43 A'   44 A'   45 A'   28 A"                 
  2.153   2.198   2.198   2.285   2.285   2.377   2.385   2.385
 46 A'   29 A"   47 A'   48 A'   30 A"   49 A'   50 A'   31 A"                 
  2.951   3.338   3.402   3.410   3.410   3.421   3.421   3.460
 51 A'   32 A"   33 A"   52 A'   34 A"   35 A"   53 A'   54 A'                 
  3.470   3.470   3.592   3.775   3.775   3.863   4.048   4.048
 55 A'   36 A"   56 A'   37 A"   57 A'   58 A'   38 A"   59 A'                 
 --------------------------------------------------------------
 
          Ground-State Mulliken Net Atomic Charges

     Atom                 Charge (a.u.)
  ----------------------------------------
      1 H                    -0.232998
      2 C                     1.381960
      3 F                    -0.382954
      4 F                    -0.383004
      5 F                    -0.383004
  ----------------------------------------
  Sum of atomic charges =     0.000000

 -----------------------------------------------------------------
                    Cartesian Multipole Moments
 -----------------------------------------------------------------
    Charge (ESU x 10^10)
                 0.0000
    Dipole Moment (Debye)
         X       1.6649      Y       0.0007      Z      -0.0000
       Tot       1.6649
    Quadrupole Moments (Debye-Ang)
        XX     -18.9249     XY       0.0027     YY     -22.6281
        XZ       0.0000     YZ       0.0000     ZZ     -22.6285
    Octopole Moments (Debye-Ang^2)
       XXX       0.1717    XXY      -0.0031    XYY      -0.7418
       YYY       1.0986    XXZ      -0.0000    XYZ      -0.0000
       YYZ       0.0000    XZZ      -0.7403    YZZ      -1.1193
       ZZZ       0.0000
    Hexadecapole Moments (Debye-Ang^3)
      XXXX     -24.9533   XXXY       0.0232   XXYY     -18.9755
      XYYY       0.4972   YYYY     -86.8597   XXXZ       0.0000
      XXYZ      -0.0000   XYYZ      -0.0000   YYYZ       0.0000
      XXZZ     -18.9750   XYZZ      -0.4678   YYZZ     -28.9559
      XZZZ       0.0000   YZZZ       0.0000   ZZZZ     -86.8672
 -----------------------------------------------------------------
 Calculating analytic gradient of the SCF energy
 Gradient of SCF Energy
            1           2           3           4           5
    1  -0.0000056  -0.0000905   0.0000550   0.0000206   0.0000206
    2  -0.0000253  -0.0000721   0.0003202  -0.0001114  -0.0001114
    3   0.0000000   0.0000000   0.0000000  -0.0002197   0.0002197
 Max gradient component =       3.202E-04
 RMS gradient           =       1.270E-04
 Gradient time:  CPU 11.13 s  wall 1.40 s
 Geometry Optimization Parameters
   NAtoms,    NIC,     NZ,  NCons,   NDum,   NFix, NCnnct, MaxDiis
        5      20       0       0       0       0       0       0

 Cartesian Hessian Update
 Hessian updated using BFGS update


** GEOMETRY OPTIMIZATION IN DELOCALIZED INTERNAL COORDINATES **
   Searching for a Minimum

   Optimization Cycle:   3

                       Coordinates (Angstroms)
     ATOM                X               Y               Z
      1  H         1.4410756381    0.0010287348    0.0000000000
      2  C         0.3410853708    0.0004155568    0.0000000000
      3  F        -0.1260340584   -1.2531632294    0.0000000000
      4  F        -0.1274016125    0.6267591037    1.0854017428
      5  F        -0.1274016125    0.6267591037   -1.0854017428
   Point Group: cs    Number of degrees of freedom:     6


   Energy is   -337.896124339

 Hessian updated using BFGS update

  6 Hessian modes will be used to form the next step
  Hessian Eigenvalues:
     0.159884    0.249945    0.323941    0.352537    0.523212    0.567798

 Minimum search - taking simple RFO step
 Searching for Lamda that Minimizes Along All modes
 Value Taken    Lamda =  -0.00000049
 Step Taken.  Stepsize is  0.000985

                             Maximum     Tolerance    Cnvgd?
         Gradient           0.000393      0.000050      NO
         Displacement       0.000743      0.000050      NO
         Energy change     -0.000024      0.000000      NO


 New Cartesian Coordinates Obtained by Inverse Iteration

 Displacement from previous Coordinates is:  0.001120
 ----------------------------------------------------------------
             Standard Nuclear Orientation (Angstroms)
    I     Atom           X                Y                Z
 ----------------------------------------------------------------
    1      H       1.4410163200     0.0011391731     0.0000000000
    2      C       0.3410266808     0.0004117101     0.0000000000
    3      F      -0.1260856950    -1.2535052990     0.0000000000
    4      F      -0.1273167902     0.6268768427     1.0856933191
    5      F      -0.1273167902     0.6268768427    -1.0856933191
 ----------------------------------------------------------------
 Molecular Point Group                 Cs    NOp =  2
 Largest Abelian Subgroup              Cs    NOp =  2
 Nuclear Repulsion Energy =         133.29125631 hartrees
 There are       17 alpha and       17 beta electrons
 Applying Cartesian multipole field
    Component          Value
    ---------          -----
     (2,0,0)        1.00000E-11
     (0,2,0)        2.00000E-11
     (0,0,2)       -3.00000E-11
 Nucleus-field energy     =    -0.0000000006 hartrees
 Requested basis set is def2-SVPD
 There are 39 shells and 97 basis functions
 A cutoff of  1.0D-14 yielded    777 shell pairs
 There are      4869 function pairs (      5721 Cartesian)
 Smallest overlap matrix eigenvalue = 7.56E-04
 Guess MOs from SCF MO coefficient file

 -----------------------------------------------------------------------
  General SCF calculation program by
  Eric Jon Sundstrom, Paul Horn, Yuezhi Mao, Dmitri Zuev, Alec White,
  David Stuck, Shaama M.S., Shane Yost, Joonho Lee, David Small,
  Daniel Levine, Susi Lehtola, Hugh Burton, Evgeny Epifanovsky,
  Bang C. Huynh
 -----------------------------------------------------------------------
 Exchange:     0.1670 Hartree-Fock + 1.0000 wB97X-V + LR-HF
 Correlation:  1.0000 wB97X-V
 Using Euler-Maclaurin-Lebedev (75,302) quadrature formula
 Nonlocal Correlation:  VV10 with C = 0.0100 and b = 6.00 and scale = 1.00000
 Grid used for NLC:  SG-1 standard quadrature
 A restricted SCF calculation will be
 performed using DIIS
 SCF converges when DIIS error is below 1.0e-09
 ---------------------------------------
  Cycle       Energy         DIIS error
 ---------------------------------------
    1    -337.8961244391      1.22e-05  
    2    -337.8961245646      2.50e-06  
    3    -337.8961245717      1.67e-06  
    4    -337.8961245741      3.99e-07  
    5    -337.8961245742      1.32e-07  
    6    -337.8961245742      1.14e-08  
    7    -337.8961245742      5.58e-09  
    8    -337.8961245742      1.49e-09  
    9    -337.8961245742      1.24e-10  Convergence criterion met
 ---------------------------------------
 SCF time:   CPU 38.14s  wall 5.00s 
 SCF   energy =  -337.89612457
 Total energy =  -337.89612457
 
 --------------------------------------------------------------
             Orbital Energies (a.u.) and Symmetries
 --------------------------------------------------------------
 
 Alpha MOs, Restricted
 -- Occupied --                  
-24.822 -24.822 -24.822 -10.551  -1.448  -1.355  -1.355  -0.850
  1 A'    1 A"    2 A'    3 A'    4 A'    2 A"    5 A'    6 A'                 
 -0.741  -0.725  -0.725  -0.601  -0.601  -0.563  -0.563  -0.540
  7 A'    3 A"    8 A'    4 A"    9 A'    5 A"   10 A'    6 A"                 
 -0.518
 11 A'                                                                         
 -- Virtual --                   
  0.085   0.132   0.139   0.139   0.205   0.205   0.219   0.222
 12 A'   13 A'    7 A"   14 A'    8 A"   15 A'   16 A'    9 A"                 
  0.222   0.257   0.257   0.292   0.317   0.320   0.380   0.380
 17 A'   18 A'   10 A"   19 A'   20 A'   11 A"   21 A'   12 A"                 
  0.382   0.451   0.465   0.465   0.474   0.483   0.483   0.591
 22 A'   23 A'   13 A"   24 A'   25 A'   14 A"   26 A'   27 A'                 
  0.591   0.684   0.713   0.713   0.724   0.778   0.778   0.782
 15 A"   28 A'   16 A"   29 A'   30 A'   31 A'   17 A"   32 A'                 
  0.835   0.838   0.838   0.876   0.876   0.937   0.959   0.959
 18 A"   19 A"   33 A'   20 A"   34 A'   21 A"   22 A"   35 A'                 
  1.051   1.095   1.095   1.134   1.205   1.596   1.596   1.743
 36 A'   23 A"   37 A'   38 A'   39 A'   40 A'   24 A"   25 A"                 
  1.743   1.804   1.804   1.835   1.850   2.055   2.094   2.153
 41 A'   26 A"   42 A'   27 A"   43 A'   44 A'   45 A'   28 A"                 
  2.153   2.197   2.198   2.286   2.286   2.378   2.385   2.385
 46 A'   29 A"   47 A'   30 A"   48 A'   49 A'   50 A'   31 A"                 
  2.951   3.338   3.402   3.410   3.410   3.421   3.421   3.460
 51 A'   32 A"   33 A"   52 A'   34 A"   53 A'   35 A"   54 A'                 
  3.470   3.470   3.591   3.774   3.774   3.863   4.048   4.048
 55 A'   36 A"   56 A'   57 A'   37 A"   58 A'   38 A"   59 A'                 
 
 Beta MOs, Restricted
 -- Occupied --                  
-24.822 -24.822 -24.822 -10.551  -1.448  -1.355  -1.355  -0.850
  1 A'    1 A"    2 A'    3 A'    4 A'    2 A"    5 A'    6 A'                 
 -0.741  -0.725  -0.725  -0.601  -0.601  -0.563  -0.563  -0.540
  7 A'    3 A"    8 A'    4 A"    9 A'    5 A"   10 A'    6 A"                 
 -0.518
 11 A'                                                                         
 -- Virtual --                   
  0.085   0.132   0.139   0.139   0.205   0.205   0.219   0.222
 12 A'   13 A'    7 A"   14 A'    8 A"   15 A'   16 A'    9 A"                 
  0.222   0.257   0.257   0.292   0.317   0.320   0.380   0.380
 17 A'   18 A'   10 A"   19 A'   20 A'   11 A"   21 A'   12 A"                 
  0.382   0.451   0.465   0.465   0.474   0.483   0.483   0.591
 22 A'   23 A'   13 A"   24 A'   25 A'   14 A"   26 A'   27 A'                 
  0.591   0.684   0.713   0.713   0.724   0.778   0.778   0.782
 15 A"   28 A'   16 A"   29 A'   30 A'   31 A'   17 A"   32 A'                 
  0.835   0.838   0.838   0.876   0.876   0.937   0.959   0.959
 18 A"   19 A"   33 A'   20 A"   34 A'   21 A"   22 A"   35 A'                 
  1.051   1.095   1.095   1.134   1.205   1.596   1.596   1.743
 36 A'   23 A"   37 A'   38 A'   39 A'   40 A'   24 A"   25 A"                 
  1.743   1.804   1.804   1.835   1.850   2.055   2.094   2.153
 41 A'   26 A"   42 A'   27 A"   43 A'   44 A'   45 A'   28 A"                 
  2.153   2.197   2.198   2.286   2.286   2.378   2.385   2.385
 46 A'   29 A"   47 A'   30 A"   48 A'   49 A'   50 A'   31 A"                 
  2.951   3.338   3.402   3.410   3.410   3.421   3.421   3.460
 51 A'   32 A"   33 A"   52 A'   34 A"   53 A'   35 A"   54 A'                 
  3.470   3.470   3.591   3.774   3.774   3.863   4.048   4.048
 55 A'   36 A"   56 A'   57 A'   37 A"   58 A'   38 A"   59 A'                 
 --------------------------------------------------------------
 
          Ground-State Mulliken Net Atomic Charges

     Atom                 Charge (a.u.)
  ----------------------------------------
      1 H                    -0.232826
      2 C                     1.382273
      3 F                    -0.383141
      4 F                    -0.383152
      5 F                    -0.383152
  ----------------------------------------
  Sum of atomic charges =     0.000000

 -----------------------------------------------------------------
                    Cartesian Multipole Moments
 -----------------------------------------------------------------
    Charge (ESU x 10^10)
                -0.0000
    Dipole Moment (Debye)
         X       1.6650      Y       0.0012      Z      -0.0000
       Tot       1.6650
    Quadrupole Moments (Debye-Ang)
        XX     -18.9252     XY       0.0027     YY     -22.6298
        XZ      -0.0000     YZ      -0.0000     ZZ     -22.6300
    Octopole Moments (Debye-Ang^2)
       XXX       0.1726    XXY      -0.0022    XYY      -0.7420
       YYY       1.1010    XXZ      -0.0000    XYZ      -0.0000
       YYZ      -0.0000    XZZ      -0.7405    YZZ      -1.1187
       ZZZ      -0.0000
    Hexadecapole Moments (Debye-Ang^3)
      XXXX     -24.9486   XXXY       0.0208   XXYY     -18.9816
      XYYY       0.4943   YYYY     -86.8974   XXXZ       0.0000
      XXYZ      -0.0000   XYYZ       0.0000   YYYZ       0.0000
      XXZZ     -18.9816   XYZZ      -0.4689   YYZZ     -28.9688
      XZZZ       0.0000   YZZZ      -0.0000   ZZZZ     -86.9063
 -----------------------------------------------------------------
 Calculating analytic gradient of the SCF energy
 Gradient of SCF Energy
            1           2           3           4           5
    1   0.0000073   0.0000164  -0.0000134  -0.0000052  -0.0000052
    2  -0.0000009  -0.0000387   0.0000059   0.0000168   0.0000168
    3   0.0000000   0.0000000   0.0000000   0.0000187  -0.0000187
 Max gradient component =       3.867E-05
 RMS gradient           =       1.495E-05
 Gradient time:  CPU 11.65 s  wall 1.56 s
 Geometry Optimization Parameters
   NAtoms,    NIC,     NZ,  NCons,   NDum,   NFix, NCnnct, MaxDiis
        5      20       0       0       0       0       0       0

 Cartesian Hessian Update
 Hessian updated using BFGS update


** GEOMETRY OPTIMIZATION IN DELOCALIZED INTERNAL COORDINATES **
   Searching for a Minimum

   Optimization Cycle:   4

                       Coordinates (Angstroms)
     ATOM                X               Y               Z
      1  H         1.4410163200    0.0011391731    0.0000000000
      2  C         0.3410266808    0.0004117101    0.0000000000
      3  F        -0.1260856950   -1.2535052990    0.0000000000
      4  F        -0.1273167902    0.6268768427    1.0856933191
      5  F        -0.1273167902    0.6268768427   -1.0856933191
   Point Group: cs    Number of degrees of freedom:     6


   Energy is   -337.896124574

 Hessian updated using BFGS update

  6 Hessian modes will be used to form the next step
  Hessian Eigenvalues:
     0.161306    0.249223    0.323886    0.350555    0.539893    0.574111

 Minimum search - taking simple RFO step
 Searching for Lamda that Minimizes Along All modes
 Value Taken    Lamda =  -0.00000000
 Step Taken.  Stepsize is  0.000108

                             Maximum     Tolerance    Cnvgd?
         Gradient           0.000028      0.000050     YES
         Displacement       0.000070      0.000050      NO
         Energy change     -0.000000      0.000000      NO


 New Cartesian Coordinates Obtained by Inverse Iteration

 Displacement from previous Coordinates is:  0.000097
 ----------------------------------------------------------------
             Standard Nuclear Orientation (Angstroms)
    I     Atom           X                Y                Z
 ----------------------------------------------------------------
    1      H       1.4409963009     0.0011146171     0.0000000000
    2      C       0.3410159978     0.0004361711     0.0000000000
    3      F      -0.1260610932    -1.2534938134     0.0000000000
    4      F      -0.1273137401     0.6268711474     1.0856865480
    5      F      -0.1273137401     0.6268711474    -1.0856865480
 ----------------------------------------------------------------
 Molecular Point Group                 Cs    NOp =  2
 Largest Abelian Subgroup              Cs    NOp =  2
 Nuclear Repulsion Energy =         133.29262298 hartrees
 There are       17 alpha and       17 beta electrons
 Applying Cartesian multipole field
    Component          Value
    ---------          -----
     (2,0,0)        1.00000E-11
     (0,2,0)        2.00000E-11
     (0,0,2)       -3.00000E-11
 Nucleus-field energy     =    -0.0000000006 hartrees
 Requested basis set is def2-SVPD
 There are 39 shells and 97 basis functions
 A cutoff of  1.0D-14 yielded    777 shell pairs
 There are      4869 function pairs (      5721 Cartesian)
 Smallest overlap matrix eigenvalue = 7.56E-04
 Guess MOs from SCF MO coefficient file

 -----------------------------------------------------------------------
  General SCF calculation program by
  Eric Jon Sundstrom, Paul Horn, Yuezhi Mao, Dmitri Zuev, Alec White,
  David Stuck, Shaama M.S., Shane Yost, Joonho Lee, David Small,
  Daniel Levine, Susi Lehtola, Hugh Burton, Evgeny Epifanovsky,
  Bang C. Huynh
 -----------------------------------------------------------------------
 Exchange:     0.1670 Hartree-Fock + 1.0000 wB97X-V + LR-HF
 Correlation:  1.0000 wB97X-V
 Using Euler-Maclaurin-Lebedev (75,302) quadrature formula
 Nonlocal Correlation:  VV10 with C = 0.0100 and b = 6.00 and scale = 1.00000
 Grid used for NLC:  SG-1 standard quadrature
 A restricted SCF calculation will be
 performed using DIIS
 SCF converges when DIIS error is below 1.0e-09
 ---------------------------------------
  Cycle       Energy         DIIS error
 ---------------------------------------
    1    -337.8961245750      1.19e-06  
    2    -337.8961245763      2.37e-07  
    3    -337.8961245764      1.86e-07  
    4    -337.8961245764      3.84e-08  
    5    -337.8961245764      1.14e-08  
    6    -337.8961245764      1.67e-09  
    7    -337.8961245764      1.08e-09  
    8    -337.8961245764      1.66e-10  Convergence criterion met
 ---------------------------------------
 SCF time:   CPU 35.01s  wall 5.00s 
 SCF   energy =  -337.89612458
 Total energy =  -337.89612458
 
 --------------------------------------------------------------
             Orbital Energies (a.u.) and Symmetries
 --------------------------------------------------------------
 
 Alpha MOs, Restricted
 -- Occupied --                  
-24.822 -24.822 -24.822 -10.551  -1.448  -1.355  -1.355  -0.850
  1 A'    1 A"    2 A'    3 A'    4 A'    2 A"    5 A'    6 A'                 
 -0.741  -0.725  -0.725  -0.601  -0.601  -0.563  -0.563  -0.540
  7 A'    3 A"    8 A'    4 A"    9 A'    5 A"   10 A'    6 A"                 
 -0.518
 11 A'                                                                         
 -- Virtual --                   
  0.085   0.132   0.139   0.139   0.205   0.205   0.219   0.222
 12 A'   13 A'    7 A"   14 A'    8 A"   15 A'   16 A'    9 A"                 
  0.222   0.257   0.257   0.292   0.317   0.320   0.380   0.380
 17 A'   18 A'   10 A"   19 A'   20 A'   11 A"   21 A'   12 A"                 
  0.382   0.451   0.465   0.465   0.474   0.483   0.483   0.591
 22 A'   23 A'   13 A"   24 A'   25 A'   26 A'   14 A"   27 A'                 
  0.591   0.684   0.713   0.713   0.724   0.778   0.778   0.782
 15 A"   28 A'   16 A"   29 A'   30 A'   31 A'   17 A"   32 A'                 
  0.835   0.838   0.838   0.876   0.876   0.937   0.959   0.959
 18 A"   19 A"   33 A'   20 A"   34 A'   21 A"   35 A'   22 A"                 
  1.051   1.095   1.095   1.134   1.205   1.596   1.596   1.743
 36 A'   23 A"   37 A'   38 A'   39 A'   24 A"   40 A'   25 A"                 
  1.743   1.804   1.804   1.835   1.850   2.055   2.094   2.153
 41 A'   26 A"   42 A'   27 A"   43 A'   44 A'   45 A'   28 A"                 
  2.153   2.198   2.198   2.286   2.286   2.378   2.385   2.385
 46 A'   29 A"   47 A'   30 A"   48 A'   49 A'   50 A'   31 A"                 
  2.951   3.338   3.402   3.410   3.410   3.421   3.421   3.460
 51 A'   32 A"   33 A"   34 A"   52 A'   53 A'   35 A"   54 A'                 
  3.470   3.470   3.591   3.774   3.774   3.863   4.048   4.048
 55 A'   36 A"   56 A'   57 A'   37 A"   58 A'   38 A"   59 A'                 
 
 Beta MOs, Restricted
 -- Occupied --                  
-24.822 -24.822 -24.822 -10.551  -1.448  -1.355  -1.355  -0.850
  1 A'    1 A"    2 A'    3 A'    4 A'    2 A"    5 A'    6 A'                 
 -0.741  -0.725  -0.725  -0.601  -0.601  -0.563  -0.563  -0.540
  7 A'    3 A"    8 A'    4 A"    9 A'    5 A"   10 A'    6 A"                 
 -0.518
 11 A'                                                                         
 -- Virtual --                   
  0.085   0.132   0.139   0.139   0.205   0.205   0.219   0.222
 12 A'   13 A'    7 A"   14 A'    8 A"   15 A'   16 A'    9 A"                 
  0.222   0.257   0.257   0.292   0.317   0.320   0.380   0.380
 17 A'   18 A'   10 A"   19 A'   20 A'   11 A"   21 A'   12 A"                 
  0.382   0.451   0.465   0.465   0.474   0.483   0.483   0.591
 22 A'   23 A'   13 A"   24 A'   25 A'   26 A'   14 A"   27 A'                 
  0.591   0.684   0.713   0.713   0.724   0.778   0.778   0.782
 15 A"   28 A'   16 A"   29 A'   30 A'   31 A'   17 A"   32 A'                 
  0.835   0.838   0.838   0.876   0.876   0.937   0.959   0.959
 18 A"   19 A"   33 A'   20 A"   34 A'   21 A"   35 A'   22 A"                 
  1.051   1.095   1.095   1.134   1.205   1.596   1.596   1.743
 36 A'   23 A"   37 A'   38 A'   39 A'   24 A"   40 A'   25 A"                 
  1.743   1.804   1.804   1.835   1.850   2.055   2.094   2.153
 41 A'   26 A"   42 A'   27 A"   43 A'   44 A'   45 A'   28 A"                 
  2.153   2.198   2.198   2.286   2.286   2.378   2.385   2.385
 46 A'   29 A"   47 A'   30 A"   48 A'   49 A'   50 A'   31 A"                 
  2.951   3.338   3.402   3.410   3.410   3.421   3.421   3.460
 51 A'   32 A"   33 A"   34 A"   52 A'   53 A'   35 A"   54 A'                 
  3.470   3.470   3.591   3.774   3.774   3.863   4.048   4.048
 55 A'   36 A"   56 A'   57 A'   37 A"   58 A'   38 A"   59 A'                 
 --------------------------------------------------------------
 
          Ground-State Mulliken Net Atomic Charges

     Atom                 Charge (a.u.)
  ----------------------------------------
      1 H                    -0.232865
      2 C                     1.382289
      3 F                    -0.383152
      4 F                    -0.383136
      5 F                    -0.383136
  ----------------------------------------
  Sum of atomic charges =     0.000000

 -----------------------------------------------------------------
                    Cartesian Multipole Moments
 -----------------------------------------------------------------
    Charge (ESU x 10^10)
                -0.0000
    Dipole Moment (Debye)
         X       1.6649      Y       0.0013      Z      -0.0000
       Tot       1.6649
    Quadrupole Moments (Debye-Ang)
        XX     -18.9253     XY       0.0027     YY     -22.6298
        XZ      -0.0000     YZ       0.0000     ZZ     -22.6298
    Octopole Moments (Debye-Ang^2)
       XXX       0.1720    XXY      -0.0023    XYY      -0.7420
       YYY       1.1010    XXZ      -0.0000    XYZ      -0.0000
       YYZ       0.0000    XZZ      -0.7406    YZZ      -1.1187
       ZZZ       0.0000
    Hexadecapole Moments (Debye-Ang^3)
      XXXX     -24.9485   XXXY       0.0209   XXYY     -18.9814
      XYYY       0.4947   YYYY     -86.8962   XXXZ      -0.0000
      XXYZ      -0.0000   XYYZ       0.0000   YYYZ       0.0000
      XXZZ     -18.9812   XYZZ      -0.4688   YYZZ     -28.9684
      XZZZ       0.0000   YZZZ       0.0000   ZZZZ     -86.9046
 -----------------------------------------------------------------
 Calculating analytic gradient of the SCF energy
 Gradient of SCF Energy
            1           2           3           4           5
    1  -0.0000004  -0.0000001  -0.0000048   0.0000026   0.0000026
    2  -0.0000080  -0.0000171   0.0000139   0.0000056   0.0000056
    3  -0.0000000  -0.0000000  -0.0000000   0.0000061  -0.0000061
 Max gradient component =       1.706E-05
 RMS gradient           =       6.933E-06
 Gradient time:  CPU 11.34 s  wall 1.66 s
 Geometry Optimization Parameters
   NAtoms,    NIC,     NZ,  NCons,   NDum,   NFix, NCnnct, MaxDiis
        5      20       0       0       0       0       0       0

 Cartesian Hessian Update
 Hessian updated using BFGS update
**WARNING** Hereditary positive definiteness endangered
 due to small product of step size times gradient change
**WARNING** Small scalar product
 Hessian update skipped this cycle


** GEOMETRY OPTIMIZATION IN DELOCALIZED INTERNAL COORDINATES **
   Searching for a Minimum

   Optimization Cycle:   5

                       Coordinates (Angstroms)
     ATOM                X               Y               Z
      1  H         1.4409963009    0.0011146171    0.0000000000
      2  C         0.3410159978    0.0004361711    0.0000000000
      3  F        -0.1260610932   -1.2534938134    0.0000000000
      4  F        -0.1273137401    0.6268711474    1.0856865480
      5  F        -0.1273137401    0.6268711474   -1.0856865480
   Point Group: cs    Number of degrees of freedom:     6


   Energy is   -337.896124576

 Hessian updated using BFGS update
**WARNING** Hereditary positive definiteness endangered
 due to small product of step size times gradient change
**WARNING** Small scalar product
 Hessian update skipped this cycle

  6 Hessian modes will be used to form the next step
  Hessian Eigenvalues:
     0.161306    0.249223    0.323886    0.350555    0.539893    0.574111

 Minimum search - taking simple RFO step
 Searching for Lamda that Minimizes Along All modes
 Value Taken    Lamda =  -0.00000000
 Step Taken.  Stepsize is  0.000028

                             Maximum     Tolerance    Cnvgd?
         Gradient           0.000012      0.000050     YES
         Displacement       0.000021      0.000050     YES
         Energy change     -0.000000      0.000000     YES


                       Distance Matrix (Angstroms)
             H (  1)   C (  2)   F (  3)   F (  4)
   C (  2)  1.099981
   F (  3)  2.007414  1.338096
   F (  4)  2.007457  1.338084  2.171287
   F (  5)  2.007457  1.338084  2.171287  2.171373
 
 Final energy is   -337.896124576397     


 ******************************
 **  OPTIMIZATION CONVERGED  **
 ******************************

                       Coordinates (Angstroms)
     ATOM                X               Y               Z
      1  H         1.4409963009    0.0011146171    0.0000000000
      2  C         0.3410159978    0.0004361711    0.0000000000
      3  F        -0.1260610932   -1.2534938134    0.0000000000
      4  F        -0.1273137401    0.6268711474    1.0856865480
      5  F        -0.1273137401    0.6268711474   -1.0856865480

Z-matrix Print:
$molecule
0 1
C 
H  1 1.099981
F  1 1.338084 2 110.469666
F  1 1.338084 2 110.469666 3 -120.007735 0
F  1 1.338096 2 110.465227 3 119.996133 0
$end

 
 --------------------------------------------------------------
             Orbital Energies (a.u.) and Symmetries
 --------------------------------------------------------------
 
 Alpha MOs, Restricted
 -- Occupied --                  
-24.822 -24.822 -24.822 -10.551  -1.448  -1.355  -1.355  -0.850
  1 A'    1 A"    2 A'    3 A'    4 A'    2 A"    5 A'    6 A'                 
 -0.741  -0.725  -0.725  -0.601  -0.601  -0.563  -0.563  -0.540
  7 A'    3 A"    8 A'    4 A"    9 A'    5 A"   10 A'    6 A"                 
 -0.518
 11 A'                                                                         
 -- Virtual --                   
  0.085   0.132   0.139   0.139   0.205   0.205   0.219   0.222
 12 A'   13 A'    7 A"   14 A'    8 A"   15 A'   16 A'    9 A"                 
  0.222   0.257   0.257   0.292   0.317   0.320   0.380   0.380
 17 A'   18 A'   10 A"   19 A'   20 A'   11 A"   21 A'   12 A"                 
  0.382   0.451   0.465   0.465   0.474   0.483   0.483   0.591
 22 A'   23 A'   13 A"   24 A'   25 A'   26 A'   14 A"   27 A'                 
  0.591   0.684   0.713   0.713   0.724   0.778   0.778   0.782
 15 A"   28 A'   16 A"   29 A'   30 A'   31 A'   17 A"   32 A'                 
  0.835   0.838   0.838   0.876   0.876   0.937   0.959   0.959
 18 A"   19 A"   33 A'   20 A"   34 A'   21 A"   35 A'   22 A"                 
  1.051   1.095   1.095   1.134   1.205   1.596   1.596   1.743
 36 A'   23 A"   37 A'   38 A'   39 A'   24 A"   40 A'   25 A"                 
  1.743   1.804   1.804   1.835   1.850   2.055   2.094   2.153
 41 A'   26 A"   42 A'   27 A"   43 A'   44 A'   45 A'   28 A"                 
  2.153   2.198   2.198   2.286   2.286   2.378   2.385   2.385
 46 A'   29 A"   47 A'   30 A"   48 A'   49 A'   50 A'   31 A"                 
  2.951   3.338   3.402   3.410   3.410   3.421   3.421   3.460
 51 A'   32 A"   33 A"   34 A"   52 A'   53 A'   35 A"   54 A'                 
  3.470   3.470   3.591   3.774   3.774   3.863   4.048   4.048
 55 A'   36 A"   56 A'   57 A'   37 A"   58 A'   38 A"   59 A'                 
 
 Beta MOs, Restricted
 -- Occupied --                  
-24.822 -24.822 -24.822 -10.551  -1.448  -1.355  -1.355  -0.850
  1 A'    1 A"    2 A'    3 A'    4 A'    2 A"    5 A'    6 A'                 
 -0.741  -0.725  -0.725  -0.601  -0.601  -0.563  -0.563  -0.540
  7 A'    3 A"    8 A'    4 A"    9 A'    5 A"   10 A'    6 A"                 
 -0.518
 11 A'                                                                         
 -- Virtual --                   
  0.085   0.132   0.139   0.139   0.205   0.205   0.219   0.222
 12 A'   13 A'    7 A"   14 A'    8 A"   15 A'   16 A'    9 A"                 
  0.222   0.257   0.257   0.292   0.317   0.320   0.380   0.380
 17 A'   18 A'   10 A"   19 A'   20 A'   11 A"   21 A'   12 A"                 
  0.382   0.451   0.465   0.465   0.474   0.483   0.483   0.591
 22 A'   23 A'   13 A"   24 A'   25 A'   26 A'   14 A"   27 A'                 
  0.591   0.684   0.713   0.713   0.724   0.778   0.778   0.782
 15 A"   28 A'   16 A"   29 A'   30 A'   31 A'   17 A"   32 A'                 
  0.835   0.838   0.838   0.876   0.876   0.937   0.959   0.959
 18 A"   19 A"   33 A'   20 A"   34 A'   21 A"   35 A'   22 A"                 
  1.051   1.095   1.095   1.134   1.205   1.596   1.596   1.743
 36 A'   23 A"   37 A'   38 A'   39 A'   24 A"   40 A'   25 A"                 
  1.743   1.804   1.804   1.835   1.850   2.055   2.094   2.153
 41 A'   26 A"   42 A'   27 A"   43 A'   44 A'   45 A'   28 A"                 
  2.153   2.198   2.198   2.286   2.286   2.378   2.385   2.385
 46 A'   29 A"   47 A'   30 A"   48 A'   49 A'   50 A'   31 A"                 
  2.951   3.338   3.402   3.410   3.410   3.421   3.421   3.460
 51 A'   32 A"   33 A"   34 A"   52 A'   53 A'   35 A"   54 A'                 
  3.470   3.470   3.591   3.774   3.774   3.863   4.048   4.048
 55 A'   36 A"   56 A'   57 A'   37 A"   58 A'   38 A"   59 A'                 
 --------------------------------------------------------------
 
          Ground-State Mulliken Net Atomic Charges

     Atom                 Charge (a.u.)
  ----------------------------------------
      1 H                    -0.232865
      2 C                     1.382289
      3 F                    -0.383152
      4 F                    -0.383136
      5 F                    -0.383136
  ----------------------------------------
  Sum of atomic charges =     0.000000

 -----------------------------------------------------------------
                    Cartesian Multipole Moments
 -----------------------------------------------------------------
    Charge (ESU x 10^10)
                -0.0000
    Dipole Moment (Debye)
         X       1.6649      Y       0.0013      Z      -0.0000
       Tot       1.6649
    Quadrupole Moments (Debye-Ang)
        XX     -18.9253     XY       0.0027     YY     -22.6298
        XZ      -0.0000     YZ       0.0000     ZZ     -22.6298
    Octopole Moments (Debye-Ang^2)
       XXX       0.1720    XXY      -0.0023    XYY      -0.7420
       YYY       1.1010    XXZ      -0.0000    XYZ      -0.0000
       YYZ       0.0000    XZZ      -0.7406    YZZ      -1.1187
       ZZZ       0.0000
    Hexadecapole Moments (Debye-Ang^3)
      XXXX     -24.9485   XXXY       0.0209   XXYY     -18.9814
      XYYY       0.4947   YYYY     -86.8962   XXXZ      -0.0000
      XXYZ      -0.0000   XYYZ       0.0000   YYYZ       0.0000
      XXZZ     -18.9812   XYZZ      -0.4688   YYZZ     -28.9684
      XZZZ       0.0000   YZZZ       0.0000   ZZZZ     -86.9046
 -----------------------------------------------------------------
 Total job time:  35.80s(wall), 272.34s(cpu) 
 Wed May 29 16:11:18 2024

        *************************************************************
        *                                                           *
        *  Thank you very much for using Q-Chem.  Have a nice day.  *
        *                                                           *
        *************************************************************


 
User input: 2 of 2 
 
                  Welcome to Q-Chem
     A Quantum Leap Into The Future Of Chemistry


 Q-Chem 6.2 (devel), Q-Chem, Inc., Pleasanton, CA (2024)

 E. Epifanovsky,  A. T. B. Gilbert,  Xintian Feng,  Joonho Lee,  Yuezhi Mao,  
 N. Mardirossian,  P. Pokhilko,  A. White,  M. Wormit,  M. P. Coons,  
 A. L. Dempwolff,  Zhengting Gan,  D. Hait,  P. R. Horn,  L. D. Jacobson,  
 I. Kaliman,  J. Kussmann,  A. W. Lange,  Ka Un Lao,  D. S. Levine,  Jie Liu,  
 S. C. McKenzie,  A. F. Morrison,  K. D. Nanda,  F. Plasser,  D. R. Rehn,  
 M. L. Vidal,  Zhi-Qiang You,  Ying Zhu,  Huseyin Aksu,  B. Alam,  
 B. Albrecht,  A. Aldossary,  E. Alguire,  J. H. Andersen,  
 J. E. Arias-Martinez,  V. Athavale,  D. Barton,  K. Begam,  A. Behn,  
 N. Bellonzi,  Y. A. Bernard,  E. J. Berquist,  H. Burton,  A. Carreras,  
 K. Carter-Fenk,  Mathew Chow,  Romit Chakraborty,  Chandrima Chakravarty,  
 Junhan Chen,  A. D. Chien,  K. D. Closser,  V. Cofer-Shabica,  L. Cunha,  
 S. Dasgupta,  Jia Deng,  Joseph Dickinson,  M. de Wergifosse,  
 M. Diedenhofen,  Hainam Do,  Wenjie Dou,  S. Ehlert,  Po-Tung Fang,  
 S. Fatehi,  Qingguo Feng,  Jonathan Fetherolf,  T. Friedhoff,  
 Thomas Froitzheim,  Sarai Folkestad,  B. Ganoe,  J. Gayvert,  Qinghui Ge,  
 G. Gidofalvi,  M. Gimferrer,  M. Goldey,  Montgomery Gray,  J. Gomes,  
 C. Gonzalez-Espinoza,  S. Gulania,  A. Gunina,  J. A. Gyamfi,  
 M. W. D. Hanson-Heine,  P. H. P. Harbach,  A. W. Hauser,  M. F. Herbst,  
 M. Hernandez Vera,  M. Hodecker,  Z. C. Holden,  S. Houck,  Xunkun Huang,  
 Kerwin Hui,  B. C. Huynh,  K. Ikeda,  M. Ivanov,  Nayanthara K. Jayadev,  
 Hyunjun Ji,  Zuxin Jin,  Hanjie Jiang,  Subrata Jana,  B. Kaduk,  
 S. Kaehler,  R. Kang,  K. Khistyaev,  Jaehoon Kim,  Yongbin Kim,  
 P. Klunzinger,  Z. Koczor-Benda,  Joong Hoon Koh,  D. Kosenkov,  
 Saikiran Kotaru,  L. Koulias,  T. Kowalczyk,  C. M. Krauter,  K. Kue,  
 A. Kunitsa,  T. Kus,  A. Landau,  K. V. Lawler,  D. Lefrancois,  S. Lehtola,  
 Rain Li,  Shaozhi Li,  Tao E. Li,  Yi-Pei Li,  Jiashu Liang,  M. Liebenthal,  
 Hung-Hsuan Lin,  You-Sheng Lin,  Fenglai Liu,  Kuan-Yu Liu,  Xiao Liu,  
 M. Loipersberger,  A. Luenser,  C. Malbon,  Aniket Mandal,  Manisha,  
 A. Manjanath,  P. Manohar,  E. Mansoor,  S. F. Manzer,  Shan-Ping Mao,  
 A. V. Marenich,  T. Markovich,  S. Mason,  F. Matz,  S. A. Maurer,  
 Samuel May,  Alexandra McIsaac,  P. F. McLaughlin,  M. F. S. J. Menger,  
 J.-M. Mewes,  S. A. Mewes,  P. Morgante,  Mohammad Mostafanejad,  
 Madhubani Mukherjee,  J. W. Mullinax,  Quyen Nguyen,  Avik Kumar Ojha,  
 K. J. Oosterbaan,  Eno Paenurk,  Xiaoliang Pan,  G. Paran,  V. Parravicini,  
 Alexander C. Paul,  Suranjan K. Paul,  F. Pavosevic,  Zheng Pei,  S. Prager,  
 E. I. Proynov,  E. Ramos,  B. Rana,  A. E. Rask,  A. Rettig,  R. M. Richard,  
 F. Rob,  E. Rossomme,  T. Scheele,  M. Scheurer,  M. Schneider,  
 P. E. Schneider,  Tim K. Schramm,  N. Sergueev,  S. M. Sharada,  
 Hengyuan Shen,  W. Skomorowski,  D. W. Small,  C. J. Stein,  
 Alistair J. Sterling,  Yingli Su,  Yu-Chuan Su,  E. J. Sundstrom,  
 J. Talbot,  Zhen Tao,  J. Thirman,  Hung-Yi Tsai,  T. Tsuchimochi,  
 N. M. Tubman,  C. Utku,  S. P. Veccham,  O. Vydrov,  Rahel Weiss,  
 J. Wenzel,  Jonathan Wong,  J. Witte,  H. Wu,  Yanze Wu,  A. Yamada,  
 Chou-Hsun Yang,  Kun Yao,  S. Yeganeh,  S. R. Yost,  Qi Yu,  A. Zech,  
 F. Zeller,  Chongxiao Zhao,  Igor Ying Zhang,  Xing Zhang,  Yu Zhang,  
 D. Zuev,  A. Aspuru-Guzik,  A. T. Bell,  N. A. Besley,  K. B. Bravaya,  
 B. R. Brooks,  D. Casanova,  Jeng-Da Chai,  Hsing-Ta Chen,  S. Coriani,  
 C. J. Cramer,  A. E. DePrince, III,  R. A. DiStasio Jr.,  A. Dreuw,  
 B. D. Dunietz,  T. R. Furlani,  W. A. Goddard III,  S. Grimme,  
 S. Hammes-Schiffer,  T. Head-Gordon,  W. J. Hehre,  Chao-Ping Hsu,  
 T.-C. Jagau,  Yousung Jung,  A. Klamt,  Jing Kong,  D. S. Lambrecht,  
 Xiangyuan Li,  WanZhen Liang,  N. J. Mayhall,  C. W. McCurdy,  J. B. Neaton,  
 T. Neudecker,  C. Ochsenfeld,  J. A. Parkhill,  R. Peverati,  
 V. A. Rassolov,  Haisheng Ren,  Yihan Shao,  L. V. Slipchenko,  
 R. P. Steele,  J. E. Subotnik,  A. J. W. Thom,  A. Tkatchenko,  
 D. G. Truhlar,  T. Van Voorhis,  Fan Wang,  T. A. Wesolowski,  K. B. Whaley,  
 H. L. Woodcock III,  P. M. Zimmerman,  S. Faraji,  P. M. W. Gill,  
 M. Head-Gordon,  J. M. Herbert,  A. I. Krylov

 Contributors to earlier versions of Q-Chem not listed above: 
 R. D. Adamson,  B. Austin,  R. Baer,  J. Baker,  G. J. O. Beran,  
 K. Brandhorst,  S. T. Brown,  E. F. C. Byrd,  Arup K. Chakraborty,  
 G. K. L. Chan,  Chun-Min Chang,  Yunqing Chen,  C.-L. Cheng,  
 Siu Hung Chien,  D. M. Chipman,  D. L. Crittenden,  H. Dachsel,  
 R. J. Doerksen,  A. D. Dutoi,  R. G. Edgar,  J. Fosso-Tande,  
 L. Fusti-Molnar,  D. Ghosh,  A. Ghysels,  A. Golubeva-Zadorozhnaya,  
 J. Gonthier,  M. S. Gordon,  S. R. Gwaltney,  G. Hawkins,  J. E. Herr,  
 A. Heyden,  S. Hirata,  E. G. Hohenstein,  G. Kedziora,  F. J. Keil,  
 C. Kelley,  Jihan Kim,  R. A. King,  R. Z. Khaliullin,  P. P. Korambath,  
 W. Kurlancheek,  A. Laurent,  A. M. Lee,  M. S. Lee,  S. V. Levchenko,  
 Ching Yeh Lin,  D. Liotard,  E. Livshits,  R. C. Lochan,  I. Lotan,  
 L. A. Martinez-Martinez,  P. E. Maslen,  N. Nair,  D. P. O'Neill,  
 D. Neuhauser,  E. Neuscamman,  C. M. Oana,  R. Olivares-Amaya,  R. Olson,  
 T. M. Perrine,  B. Peters,  P. A. Pieniazek,  A. Prociuk,  Y. M. Rhee,  
 J. Ritchie,  M. A. Rohrdanz,  E. Rosta,  N. J. Russ,  H. F. Schaefer III,  
 M. W. Schmidt,  N. E. Schultz,  S. Sharma,  N. Shenvi,  C. D. Sherrill,  
 A. C. Simmonett,  A. Sodt,  T. Stein,  D. Stuck,  K. S. Thanthiriwatte,  
 V. Vanovschi,  L. Vogt,  Tao Wang,  A. Warshel,  M. A. Watson,  
 C. F. Williams,  Q. Wu,  X. Xu,  Jun Yang,  W. Zhang,  Yan Zhao

   Please cite Q-Chem as follows:
  "Software for the frontiers of quantum chemistry:
   An overview of developments in the Q-Chem 5 package"
   J. Chem. Phys. 155, 084801 (2021)
   https://doi.org/10.1063/5.0055522 (open access)

 Q-Chem 6.2.0 for Intel X86 EM64T Linux

 Parts of Q-Chem use Armadillo 9.900.5 (Nocturnal Misbehaviour).
 http://arma.sourceforge.net/

 Q-Chem begins on Wed May 29 16:11:19 2024  

 Host: 
0

     Scratch files written to /data/scratch/cf3h_opt_freq20240529161040//
 Processing $rem in /home/ymao/my_qchem/qchem_ymao_quick_fix/config/preferences:
 Processing $rem in /home/ymao/.qchemrc:

 Checking the input file for inconsistencies... 	...done.

--------------------------------------------------------------
User input:
--------------------------------------------------------------

$molecule
read
$end

$rem
JOBTYPE  FREQ
GEN_SCFMAN  TRUE
METHOD  WB97X-V
BASIS  DEF2-SVPD
UNRESTRICTED  FALSE
MAX_SCF_CYCLES  2000
THRESH  14
SCF_CONVERGENCE  9
MEM_TOTAL  8000
MEM_STATIC  2000
SYMMETRY  FALSE
SYM_IGNORE  FALSE
SCF_ALGORITHM  DIIS
BASIS_LIN_DEP_THRESH  6
IDERIV  1
XC_GRID  000075000302
NL_GRID  1
FD_MAT_VEC_PROD  FALSE
GEOM_OPT_TOL_GRADIENT  50
GEOM_OPT_TOL_DISPLACEMENT  50
GEOM_OPT_TOL_ENERGY  10
GEOM_OPT_DRIVER  OPTIMIZE
GEOM_OPT_MAX_CYCLES  200
$end
--------------------------------------------------------------
 ----------------------------------------------------------------
             Standard Nuclear Orientation (Angstroms)
    I     Atom           X                Y                Z
 ----------------------------------------------------------------
    1      H       1.4392055741    -0.0000143574    -0.0000000000
    2      C       0.3392250629     0.0000359124    -0.0000000000
    3      F      -0.1286826300    -1.2535843674     0.0000000000
    4      F      -0.1286895712     0.6267810106     1.0856865480
    5      F      -0.1286895712     0.6267810106    -1.0856865480
 ----------------------------------------------------------------
 Molecular Point Group                 Cs    NOp =  2
 Largest Abelian Subgroup              Cs    NOp =  2
 Nuclear Repulsion Energy =         133.29262298 hartrees
 There are       17 alpha and       17 beta electrons
 Requested basis set is def2-SVPD
 There are 39 shells and 97 basis functions

 Total QAlloc Memory Limit   8000 MB
 Mega-Array Size      1956 MB
 MEM_STATIC part      2000 MB


                       Distance Matrix (Angstroms)
             H (  1)   C (  2)   F (  3)   F (  4)
   C (  2)  1.099981
   F (  3)  2.007414  1.338096
   F (  4)  2.007457  1.338084  2.171287
   F (  5)  2.007457  1.338084  2.171287  2.171373
 
 A cutoff of  1.0D-14 yielded    777 shell pairs
 There are      4869 function pairs (      5721 Cartesian)
 Smallest overlap matrix eigenvalue = 7.56E-04
 Guess from superposition of atomic densities
 Warning:  Energy on first SCF cycle will be non-variational
 SAD guess density has 34.000000 electrons

 -----------------------------------------------------------------------
  General SCF calculation program by
  Eric Jon Sundstrom, Paul Horn, Yuezhi Mao, Dmitri Zuev, Alec White,
  David Stuck, Shaama M.S., Shane Yost, Joonho Lee, David Small,
  Daniel Levine, Susi Lehtola, Hugh Burton, Evgeny Epifanovsky,
  Bang C. Huynh
 -----------------------------------------------------------------------
 Exchange:     0.1670 Hartree-Fock + 1.0000 wB97X-V + LR-HF
 Correlation:  1.0000 wB97X-V
 Using Euler-Maclaurin-Lebedev (75,302) quadrature formula
 Nonlocal Correlation:  VV10 with C = 0.0100 and b = 6.00 and scale = 1.00000
 Grid used for NLC:  SG-1 standard quadrature
 using 8 threads for integral computing
 -------------------------------------------------------
 OpenMP Integral computing Module                
 Release: version 1.0, May 2013, Q-Chem Inc. Pittsburgh 
 -------------------------------------------------------
 A restricted SCF calculation will be
 performed using DIIS
 SCF converges when DIIS error is below 1.0e-09
 ---------------------------------------
  Cycle       Energy         DIIS error
 ---------------------------------------
    1    -338.4431156859      5.76e-02  
    2    -337.7905952619      1.09e-02  
    3    -337.8059668920      1.11e-02  
    4    -337.8956978178      6.62e-04  
    5    -337.8960752587      2.04e-04  
    6    -337.8961231579      2.46e-05  
    7    -337.8961244617      4.80e-06  
    8    -337.8961245372      6.57e-07  
    9    -337.8961245386      9.11e-08  
   10    -337.8961245386      6.30e-08  
   11    -337.8961245386      9.55e-09  
   12    -337.8961245386      9.62e-10  Convergence criterion met
 ---------------------------------------
 SCF time:   CPU 53.77s  wall 8.00s 
 SCF   energy =  -337.89612454
 Total energy =  -337.89612454
 
 --------------------------------------------------------------
             Orbital Energies (a.u.) and Symmetries
 --------------------------------------------------------------
 
 Alpha MOs, Restricted
 -- Occupied --                  
-24.822 -24.822 -24.822 -10.551  -1.448  -1.355  -1.355  -0.850
  1 A'    1 A"    2 A'    3 A'    4 A'    2 A"    5 A'    6 A'                 
 -0.741  -0.725  -0.725  -0.601  -0.601  -0.563  -0.563  -0.540
  7 A'    3 A"    8 A'    4 A"    9 A'    5 A"   10 A'    6 A"                 
 -0.518
 11 A'                                                                         
 -- Virtual --                   
  0.085   0.132   0.139   0.139   0.205   0.205   0.219   0.222
 12 A'   13 A'    7 A"   14 A'    8 A"   15 A'   16 A'    9 A"                 
  0.222   0.257   0.257   0.292   0.317   0.320   0.380   0.380
 17 A'   18 A'   10 A"   19 A'   20 A'   11 A"   21 A'   12 A"                 
  0.382   0.451   0.465   0.465   0.474   0.483   0.483   0.591
 22 A'   23 A'   13 A"   24 A'   25 A'   26 A'   14 A"   27 A'                 
  0.591   0.684   0.713   0.713   0.724   0.778   0.778   0.782
 15 A"   28 A'   16 A"   29 A'   30 A'   31 A'   17 A"   32 A'                 
  0.835   0.838   0.838   0.876   0.876   0.937   0.959   0.959
 18 A"   19 A"   33 A'   20 A"   34 A'   21 A"   35 A'   22 A"                 
  1.051   1.095   1.095   1.134   1.205   1.596   1.596   1.743
 36 A'   23 A"   37 A'   38 A'   39 A'   24 A"   40 A'   25 A"                 
  1.743   1.804   1.804   1.835   1.850   2.055   2.094   2.153
 41 A'   26 A"   42 A'   27 A"   43 A'   44 A'   45 A'   28 A"                 
[...]
    Charge (ESU x 10^10)
                 0.0000
    Dipole Moment (Debye)
         X       1.6643      Y       0.0015      Z       0.0037
       Tot       1.6643
    Quadrupole Moments (Debye-Ang)
        XX     -18.9315     XY      -0.0000     YY     -22.6297
        XZ      -0.0001     YZ       0.0023     ZZ     -22.6266
    Octopole Moments (Debye-Ang^2)
       XXX       0.2713    XXY       0.0011    XYY      -0.7009
       YYY       1.1189    XXZ       0.0069    XYZ      -0.0000
       YYZ       0.0079    XZZ      -0.7007    YZZ      -1.1124
       ZZZ       0.0254
    Hexadecapole Moments (Debye-Ang^3)
      XXXX     -24.9538   XXXY      -0.0003   XXYY     -18.9781
      XYYY       0.4729   YYYY     -86.8986   XXXZ      -0.0023
      XXYZ       0.0044   XYYZ      -0.0007   YYYZ       0.0136
      XXZZ     -18.9673   XYZZ      -0.4730   YYZZ     -28.9550
      XZZZ      -0.0014   YZZZ       0.0142   ZZZZ     -86.8341
 -----------------------------------------------------------------
 Calculating analytic gradient of the SCF energy
 Gradient of SCF Energy
            1           2           3           4           5
    1  -0.0000162  -0.0001661   0.0000018   0.0001880  -0.0000076
    2   0.0000161   0.0001196   0.0000887  -0.0002389   0.0000145
    3   0.0000239   0.0003734   0.0000137  -0.0005643   0.0001533
 Max gradient component =       5.643E-04
 RMS gradient           =       2.041E-04
 Gradient time:  CPU 10.70 s  wall 1.34 s
Dipole drv :
gprntSymmMtrx error report: 
 Final Hessian.
            1           2           3           4           5           6
    1   0.3541779  -0.0000006   0.0000000  -0.3312516   0.0000092   0.0000000
    2  -0.0000006   0.0644828   0.0000000   0.0000122  -0.0485170   0.0000000
    3   0.0000000   0.0000000   0.0644884  -0.0000000   0.0000000  -0.0485213
    4  -0.3312516   0.0000122  -0.0000000   0.7574262  -0.0002619   0.0000000
    5   0.0000092  -0.0485170   0.0000000  -0.0002619   0.5152333   0.0000000
    6   0.0000000   0.0000000  -0.0485213   0.0000000   0.0000000   0.5153167
    7  -0.0076393  -0.0417044   0.0000000  -0.1423453  -0.0878805   0.0000000
    8  -0.0096138  -0.0200213   0.0000000  -0.1016384  -0.2383574   0.0000000
    9   0.0000000   0.0000000   0.0093773   0.0000000   0.0000000  -0.0727656
   10  -0.0076435   0.0208464   0.0361112  -0.1419150   0.0440665   0.0760494
   11   0.0048027   0.0020278  -0.0127271   0.0509440  -0.1141794  -0.0716787
   12   0.0083220  -0.0127280  -0.0126722   0.0879583  -0.0716696  -0.1970146
   13  -0.0076435   0.0208464  -0.0361112  -0.1419149   0.0440665  -0.0760494
   14   0.0048027   0.0020278   0.0127271   0.0509440  -0.1141794   0.0716787
   15  -0.0083220   0.0127280  -0.0126722  -0.0879583   0.0716696  -0.1970146
            7           8           9          10          11          12
    1  -0.0076393  -0.0096138   0.0000000  -0.0076435   0.0048027   0.0083220
    2  -0.0417044  -0.0200213   0.0000000   0.0208464   0.0020278  -0.0127280
    3   0.0000000   0.0000000   0.0093773   0.0361112  -0.0127271  -0.0126722
    4  -0.1423453  -0.1016384   0.0000000  -0.1419150   0.0509440   0.0879583
    5  -0.0878805  -0.2383574   0.0000000   0.0440665  -0.1141794  -0.0716696
    6   0.0000000   0.0000000  -0.0727656   0.0760494  -0.0716787  -0.1970146
    7   0.1067589   0.1131470   0.0000000   0.0216130   0.0082189  -0.0036423
    8   0.1131470   0.3754926   0.0000000  -0.0009473  -0.0585571  -0.0396415
    9   0.0000000   0.0000000   0.0779044  -0.0089347  -0.0492415  -0.0072581
   10   0.0216130  -0.0009473  -0.0089347   0.1063400  -0.0567053  -0.0979318
   11   0.0082189  -0.0585571  -0.0492415  -0.0567053   0.1523127   0.1288431
   12  -0.0036423  -0.0396415  -0.0072581  -0.0979318   0.1288431   0.3011579
   13   0.0216130  -0.0009473   0.0089347   0.0216057  -0.0072603   0.0052938
   14   0.0082189  -0.0585571   0.0492415  -0.0072603   0.0183959  -0.0048040
   15   0.0036423   0.0396415  -0.0072581  -0.0052938   0.0048040  -0.0842132
           13          14          15
    1  -0.0076435   0.0048027  -0.0083220
    2   0.0208464   0.0020278   0.0127280
    3  -0.0361112   0.0127271  -0.0126722
    4  -0.1419149   0.0509440  -0.0879583
    5   0.0440665  -0.1141794   0.0716696
    6  -0.0760494   0.0716787  -0.1970146
    7   0.0216130   0.0082189   0.0036423
    8  -0.0009473  -0.0585571   0.0396415
    9   0.0089347   0.0492415  -0.0072581
   10   0.0216057  -0.0072603  -0.0052938
   11  -0.0072603   0.0183959   0.0048040
   12   0.0052938  -0.0048040  -0.0842132
   13   0.1063400  -0.0567053   0.0979318
   14  -0.0567053   0.1523127  -0.1288431
   15   0.0979318  -0.1288431   0.3011579
 ----------------------------------------------------------------
             Standard Nuclear Orientation (Angstroms)
    I     Atom           X                Y                Z
 ----------------------------------------------------------------
    1      H       1.4392055741    -0.0000143574    -0.0000000000
    2      C       0.3392250629     0.0000359124    -0.0000000000
    3      F      -0.1286826300    -1.2535843674     0.0000000000
    4      F      -0.1286895712     0.6267810106     1.0856865480
    5      F      -0.1286895712     0.6267810106    -1.0856865480
 ----------------------------------------------------------------
 Nuclear Repulsion Energy =         133.29262298 hartrees
 There are       17 alpha and       17 beta electrons
 old dipole drv.
            1           2           3           4           5           6
    1  -0.0580141   0.0000039   0.0000000   1.1577119   0.0000109   0.0000000
    2  -0.0000155   0.0156601   0.0000000   0.0000043   1.8438789   0.0000000
    3   0.0000000  -0.0000000   0.0156588   0.0000004   0.0000000   1.8439688
            7           8           9          10          11          12
    1  -0.3665793  -0.1328784   0.0000000  -0.3665601   0.0664326   0.1150920
    2  -0.2875590  -0.9363073   0.0000000   0.1437856  -0.4616166  -0.2740842
    3   0.0000002   0.0000000  -0.3034079   0.2490492  -0.2740474  -0.7781119
           13          14          15
    1  -0.3665601   0.0664326  -0.1150920
    2   0.1437856  -0.4616166   0.2740842
    3  -0.2490492   0.2740474  -0.7781119
 New transposed dipole drv.
            1           2           3
    1  -0.0580141  -0.0000155   0.0000000
    2   0.0000039   0.0156601  -0.0000000
    3   0.0000000   0.0000000   0.0156588
    4   1.1577119   0.0000043   0.0000004
    5   0.0000109   1.8438789   0.0000000
    6   0.0000000   0.0000000   1.8439688
    7  -0.3665793  -0.2875590   0.0000002
    8  -0.1328784  -0.9363073   0.0000000
    9   0.0000000   0.0000000  -0.3034079
   10  -0.3665601   0.1437856   0.2490492
   11   0.0664326  -0.4616166  -0.2740474
   12   0.1150920  -0.2740842  -0.7781119
   13  -0.3665601   0.1437856  -0.2490492
   14   0.0664326  -0.4616166   0.2740474
   15  -0.1150920   0.2740842  -0.7781119
FINAL TENSOR RESULT:
Order 2, Length 15
    Atom      X          Y          Z
     1 Order 1, Length 15
    Atom      X          Y          Z
     1    3.541778563438882e-01  -6.121568171947286e-07   0.000000000000000e+00
     2   -3.312516295663060e-01   9.172395174602596e-06   0.000000000000000e+00
     3   -7.639262194323012e-03  -9.613784063379951e-03   0.000000000000000e+00
     4   -7.643515257813463e-03   4.802700902396704e-03   8.321971675552479e-03
     5   -7.643515257886901e-03   4.802700902020333e-03  -8.321971663798711e-03

Order 1, Length 15
    Atom      X          Y          Z
     1   -6.121568171947286e-07   6.448279254746658e-02   0.000000000000000e+00
     2    1.217709673237206e-05  -4.851704768447777e-02   0.000000000000000e+00
     3   -4.170442841680706e-02  -2.002132884274060e-02   0.000000000000000e+00
     4    2.084643455331046e-02   2.027832249196250e-03  -1.272799040113052e-02
     5    2.084643455433860e-02   2.027832251731700e-03   1.272799040013911e-02

Order 1, Length 15
    Atom      X          Y          Z
     1    0.000000000000000e+00   0.000000000000000e+00   6.448844566664008e-02
     2   -1.013527258944109e-08   0.000000000000000e+00  -4.852132693041343e-02
     3    8.982413997404913e-09   0.000000000000000e+00   9.377308942983742e-03
     4    3.611115030924379e-02  -1.272706873818490e-02  -1.267216722686123e-02
     5   -3.611115030924379e-02   1.272706873818490e-02  -1.267216722686123e-02


     2 Order 1, Length 15
    Atom      X          Y          Z
     1   -3.312516295663060e-01   1.217709673237206e-05  -1.013527258944109e-08
     2    7.574262363701539e-01  -2.619193616589126e-04   0.000000000000000e+00
     3   -1.423452973889013e-01  -1.016384457887810e-01   0.000000000000000e+00
     4   -1.419149825033659e-01   5.094401523020324e-02   8.795829597166907e-02
     5   -1.419149456970450e-01   5.094398480601593e-02  -8.795826083514492e-02

Order 1, Length 15
    Atom      X          Y          Z
     1    9.172395174602596e-06  -4.851704768447777e-02   0.000000000000000e+00
     2   -2.619193616589126e-04   5.152332814149052e-01   0.000000000000000e+00
     3   -8.788046114612875e-02  -2.383573934784828e-01   0.000000000000000e+00
     4    4.406651265059390e-02  -1.141793521079699e-01  -7.166955420264717e-02
     5    4.406651264950151e-02  -1.141793521117373e-01   7.166955420367163e-02

Order 1, Length 15
    Atom      X          Y          Z
     1    0.000000000000000e+00   0.000000000000000e+00  -4.852132693041343e-02
     2    0.000000000000000e+00   0.000000000000000e+00   5.153166780753220e-01
     3    0.000000000000000e+00   0.000000000000000e+00  -7.276558751660139e-02
     4    7.604935444042767e-02  -7.167869612441649e-02  -1.970146444912128e-01
     5   -7.604935444042767e-02   7.167869612441649e-02  -1.970146444912128e-01


     3 Order 1, Length 15
    Atom      X          Y          Z
     1   -7.639262194323012e-03  -4.170442841680706e-02   8.982413997404913e-09
     2   -1.423452973889013e-01  -8.788046114612875e-02   0.000000000000000e+00
     3    1.067588515985746e-01   1.131470495952218e-01   0.000000000000000e+00
     4    2.161299171923323e-02   8.218907911427958e-03  -3.642275329667764e-03
     5    2.161298789205488e-02   8.218899417058842e-03   3.642272429828902e-03

Order 1, Length 15
    Atom      X          Y          Z
     1   -9.613784063379951e-03  -2.002132884274060e-02   0.000000000000000e+00
     2   -1.016384457887810e-01  -2.383573934784828e-01   0.000000000000000e+00
     3    1.131470495952218e-01   3.754926028636938e-01   0.000000000000000e+00
     4   -9.473258269101284e-04  -5.855707791539688e-02  -3.964151753942694e-02
     5   -9.473258269523554e-04  -5.855707791362336e-02   3.964151753508675e-02

Order 1, Length 15
    Atom      X          Y          Z
     1    0.000000000000000e+00   0.000000000000000e+00   9.377308942983742e-03
     2    0.000000000000000e+00   0.000000000000000e+00  -7.276558751660139e-02
     3    0.000000000000000e+00   0.000000000000000e+00   7.790438663304707e-02
     4   -8.934742086172644e-03  -4.924148863475826e-02  -7.258077027036891e-03
     5    8.934742086172644e-03   4.924148863475826e-02  -7.258077027036891e-03


     4 Order 1, Length 15
    Atom      X          Y          Z
     1   -7.643515257813463e-03   2.084643455331046e-02   3.611115030924379e-02
     2   -1.419149825033659e-01   4.406651265059390e-02   7.604935444042767e-02
     3    2.161299171923323e-02  -9.473258269101284e-04  -8.934742086172644e-03
     4    1.063400070192784e-01  -5.670528950444460e-02  -9.793184735516576e-02
     5    2.160568907596611e-02  -7.260310553743679e-03  -5.293847983635530e-03

Order 1, Length 15
    Atom      X          Y          Z
     1    4.802700902396704e-03   2.027832249196250e-03  -1.272706873818490e-02
     2    5.094401523020324e-02  -1.141793521079699e-01  -7.167869612441649e-02
     3    8.218907911427958e-03  -5.855707791539688e-02  -4.924148863475826e-02
     4   -5.670528950444460e-02   1.523126985215227e-01   1.288431017650990e-01
     5   -7.260310553743679e-03   1.839592861743843e-02   4.804016765662710e-03

Order 1, Length 15
    Atom      X          Y          Z
     1    8.321971675552479e-03  -1.272799040113052e-02  -1.267216722686123e-02
     2    8.795829597166907e-02  -7.166955420264717e-02  -1.970146444912128e-01
     3   -3.642275329667764e-03  -3.964151753942694e-02  -7.258077027036891e-03
     4   -9.793184735516576e-02   1.288431017650990e-01   3.011578659568431e-01
     5    5.293847983635530e-03  -4.804016765662710e-03  -8.421323816453768e-02


     5 Order 1, Length 15
    Atom      X          Y          Z
     1   -7.643515257886901e-03   2.084643455433860e-02  -3.611115030924379e-02
     2   -1.419149456970450e-01   4.406651264950151e-02  -7.604935444042767e-02
     3    2.161298789205488e-02  -9.473258269523554e-04   8.934742086172644e-03
     4    2.160568907596611e-02  -7.260310553743679e-03   5.293847983635530e-03
     5    1.063400070192784e-01  -5.670528950444460e-02   9.793184735516576e-02

Order 1, Length 15
    Atom      X          Y          Z
     1    4.802700902020333e-03   2.027832251731700e-03   1.272706873818490e-02
     2    5.094398480601593e-02  -1.141793521117373e-01   7.167869612441649e-02
     3    8.218899417058842e-03  -5.855707791362336e-02   4.924148863475826e-02
     4   -7.260310553743679e-03   1.839592861743843e-02  -4.804016765662710e-03
     5   -5.670528950444460e-02   1.523126985215227e-01  -1.288431017650990e-01

Order 1, Length 15
    Atom      X          Y          Z
     1   -8.321971663798711e-03   1.272799040013911e-02  -1.267216722686123e-02
     2   -8.795826083514492e-02   7.166955420367163e-02  -1.970146444912128e-01
     3    3.642272429828902e-03   3.964151753508675e-02  -7.258077027036891e-03
     4   -5.293847983635530e-03   4.804016765662710e-03  -8.421323816453768e-02
     5    9.793184735516576e-02  -1.288431017650990e-01   3.011578659568431e-01





 ###########################################
 # Finishing finite difference calculation #
 ###########################################

 Requested basis set is def2-SVPD
 There are 39 shells and 97 basis functions
 **********************************************************************
 **                                                                  **
 **                       VIBRATIONAL ANALYSIS                       **
 **                       --------------------                       **
 **                                                                  **
 **        VIBRATIONAL FREQUENCIES (CM**-1) AND NORMAL MODES         **
 **     FORCE CONSTANTS (mDYN/ANGSTROM) AND REDUCED MASSES (AMU)     **
 **                  INFRARED INTENSITIES (KM/MOL)                   **
 **                                                                  **
 **********************************************************************
 

 Mode:                 1                      2                      3
 Frequency:       508.42                 508.51                 702.36
 Force Cnst:      2.0979                 2.0989                 3.9070
 Red. Mass:      13.7747                13.7765                13.4424
 IR Active:          YES                    YES                    YES
 IR Intens:        2.477                  2.470                 14.361
 Raman Active:       YES                    YES                    YES
               X      Y      Z        X      Y      Z        X      Y      Z
 H          0.000 -0.000 -0.514   -0.001 -0.514  0.000    0.478 -0.001  0.000
 C          0.000 -0.000 -0.258   -0.001 -0.258  0.000    0.454 -0.000  0.000
 F          0.000 -0.000  0.529    0.063 -0.403 -0.000   -0.104  0.421 -0.000
 F         -0.055 -0.403 -0.169   -0.032  0.297 -0.403   -0.104 -0.210 -0.365
 F          0.055  0.403 -0.169   -0.032  0.296  0.403   -0.104 -0.210  0.365
 TransDip   0.000 -0.000 -0.050   -0.000 -0.050  0.000    0.121  0.000  0.000

 Mode:                 4                      5                      6
 Frequency:      1151.24                1171.86                1171.88
 Force Cnst:      6.6060                 4.0572                 4.0563
 Red. Mass:       8.4598                 5.0145                 5.0131
 IR Active:          YES                    YES                    YES
 IR Intens:       98.588                298.762                298.758
 Raman Active:       YES                    YES                    YES
               X      Y      Z        X      Y      Z        X      Y      Z
 H          0.657  0.003  0.000   -0.002  0.830  0.000   -0.000 -0.000  0.830
 C          0.629  0.003  0.000   -0.002  0.475  0.000   -0.000 -0.000  0.475
 F         -0.145 -0.193 -0.000   -0.111 -0.209 -0.000    0.000  0.000 -0.020
 F         -0.144  0.096  0.165    0.056 -0.068 -0.083    0.096 -0.082 -0.162
 F         -0.144  0.096 -0.165    0.056 -0.068  0.083   -0.096  0.082 -0.162
 TransDip   0.318  0.002  0.000   -0.001  0.554  0.000   -0.000 -0.000  0.554

 Mode:                 7                      8                      9
 Frequency:      1381.39                1381.46                3169.08
 Force Cnst:      1.4141                 1.4144                 6.4541
 Red. Mass:       1.2578                 1.2579                 1.0907
 IR Active:          YES                    YES                    YES
 IR Intens:       53.754                 53.787                 22.600
 Raman Active:       YES                    YES                    YES
               X      Y      Z        X      Y      Z        X      Y      Z
 H          0.000  0.989  0.000   -0.000 -0.000  0.989    0.996 -0.000  0.000
 C          0.000 -0.144 -0.000   -0.000  0.000 -0.144   -0.087  0.000  0.000
 F         -0.021  0.011  0.000    0.000 -0.000  0.015    0.001 -0.000  0.000
 F          0.010  0.014 -0.002    0.018 -0.002  0.012    0.001  0.000  0.000
 F          0.010  0.014  0.002   -0.018  0.002  0.012    0.001  0.000 -0.000
 TransDip   0.000 -0.235 -0.000   -0.000  0.000 -0.235   -0.152 -0.000 -0.000

 STANDARD THERMODYNAMIC QUANTITIES AT   298.15 K  AND     1.00 ATM

   This Molecule has  0 Imaginary Frequencies
   Zero point vibrational energy:       15.934 kcal/mol

   Atom    1 Element H  Has Mass    1.00783
   Atom    2 Element C  Has Mass   12.00000
   Atom    3 Element F  Has Mass   18.99840
   Atom    4 Element F  Has Mass   18.99840
   Atom    5 Element F  Has Mass   18.99840
   Molecular Mass:    70.003030 amu
   Principal axes and moments of inertia in amu*Bohr^2:
                             1           2           3
    Eigenvalues --      175.51070   175.52752   319.86066
          X               0.00000     0.00000    -1.00000
          Y               0.00000     1.00000     0.00000
          Z               1.00000    -0.00000     0.00000
   Rotational Symmetry Number is   1
   The Molecule is an Asymmetric Top
   Translational Enthalpy:        0.889 kcal/mol
   Rotational Enthalpy:           0.889 kcal/mol
   Vibrational Enthalpy:         16.324 kcal/mol
   gas constant (RT):             0.592 kcal/mol
   Translational Entropy:        38.655  cal/mol.K
   Rotational Entropy:           23.803  cal/mol.K
   Vibrational Entropy:           1.760  cal/mol.K

   Total Enthalpy:               18.694 kcal/mol
   Total Entropy:                64.218  cal/mol.K

   Quasi-RRHO corrections using alpha = 4, and omega = 100 cm^-1
   QRRHO-Vib. Enthalpy:          16.322 kcal/mol
   QRRHO-Vib. Entropy:            1.762  cal/mol.K
   QRRHO-Total Enthalpy:         18.692 kcal/mol
   QRRHO-Total Entropy:          64.220  cal/mol.K
 Total job time:  138.82s(wall), 1072.87s(cpu) 
 Wed May 29 16:13:38 2024

        *************************************************************
        *                                                           *
        *  Thank you very much for using Q-Chem.  Have a nice day.  *
        *                                                           *
        *************************************************************


