                  Welcome to Q-Chem
     A Quantum Leap Into The Future Of Chemistry


 Q-Chem 6.2 (devel), Q-Chem, Inc., Pleasanton, CA (2024)

 E. Epifanovsky,  A. T. B. Gilbert,  Xintian Feng,  Joonho Lee,  Yuezhi Mao,  
 N. Mardirossian,  P. Pokhilko,  A. White,  M. Wormit,  M. P. Coons,  
 A. L. Dempwolff,  Zhengting Gan,  D. Hait,  P. R. Horn,  L. D. Jacobson,  
 I. Kaliman,  J. Kussmann,  A. W. Lange,  Ka Un Lao,  D. S. Levine,  Jie Liu,  
 S. C. McKenzie,  A. F. Morrison,  K. D. Nanda,  F. Plasser,  D. R. Rehn,  
 M. L. Vidal,  Zhi-Qiang You,  Ying Zhu,  Huseyin Aksu,  B. Alam,  
 B. Albrecht,  A. Aldossary,  E. Alguire,  J. H. Andersen,  
 J. E. Arias-Martinez,  V. Athavale,  D. Barton,  K. Begam,  A. Behn,  
 N. Bellonzi,  Y. A. Bernard,  E. J. Berquist,  H. Burton,  A. Carreras,  
 K. Carter-Fenk,  Mathew Chow,  Romit Chakraborty,  Chandrima Chakravarty,  
 Junhan Chen,  A. D. Chien,  K. D. Closser,  V. Cofer-Shabica,  L. Cunha,  
 S. Dasgupta,  Jia Deng,  Joseph Dickinson,  M. de Wergifosse,  
 M. Diedenhofen,  Hainam Do,  Wenjie Dou,  S. Ehlert,  Po-Tung Fang,  
 S. Fatehi,  Qingguo Feng,  Jonathan Fetherolf,  T. Friedhoff,  
 Thomas Froitzheim,  Sarai Folkestad,  B. Ganoe,  J. Gayvert,  Qinghui Ge,  
 G. Gidofalvi,  M. Gimferrer,  M. Goldey,  Montgomery Gray,  J. Gomes,  
 C. Gonzalez-Espinoza,  S. Gulania,  A. Gunina,  J. A. Gyamfi,  
 M. W. D. Hanson-Heine,  P. H. P. Harbach,  A. W. Hauser,  M. F. Herbst,  
 M. Hernandez Vera,  M. Hodecker,  Z. C. Holden,  S. Houck,  Xunkun Huang,  
 Kerwin Hui,  B. C. Huynh,  K. Ikeda,  M. Ivanov,  Nayanthara K. Jayadev,  
 Hyunjun Ji,  Zuxin Jin,  Hanjie Jiang,  Subrata Jana,  B. Kaduk,  
 S. Kaehler,  R. Kang,  K. Khistyaev,  Jaehoon Kim,  Yongbin Kim,  
 P. Klunzinger,  Z. Koczor-Benda,  Joong Hoon Koh,  D. Kosenkov,  
 Saikiran Kotaru,  L. Koulias,  T. Kowalczyk,  C. M. Krauter,  K. Kue,  
 A. Kunitsa,  T. Kus,  A. Landau,  K. V. Lawler,  D. Lefrancois,  S. Lehtola,  
 Rain Li,  Shaozhi Li,  Tao E. Li,  Yi-Pei Li,  Jiashu Liang,  M. Liebenthal,  
 Hung-Hsuan Lin,  You-Sheng Lin,  Fenglai Liu,  Kuan-Yu Liu,  Xiao Liu,  
 M. Loipersberger,  A. Luenser,  C. Malbon,  Aniket Mandal,  Manisha,  
 A. Manjanath,  P. Manohar,  E. Mansoor,  S. F. Manzer,  Shan-Ping Mao,  
 A. V. Marenich,  T. Markovich,  S. Mason,  F. Matz,  S. A. Maurer,  
 Samuel May,  Alexandra McIsaac,  P. F. McLaughlin,  M. F. S. J. Menger,  
 J.-M. Mewes,  S. A. Mewes,  P. Morgante,  Mohammad Mostafanejad,  
 Madhubani Mukherjee,  J. W. Mullinax,  Quyen Nguyen,  Avik Kumar Ojha,  
 K. J. Oosterbaan,  Eno Paenurk,  Xiaoliang Pan,  G. Paran,  V. Parravicini,  
 Alexander C. Paul,  Suranjan K. Paul,  F. Pavosevic,  Zheng Pei,  S. Prager,  
 E. I. Proynov,  E. Ramos,  B. Rana,  A. E. Rask,  A. Rettig,  R. M. Richard,  
 F. Rob,  E. Rossomme,  T. Scheele,  M. Scheurer,  M. Schneider,  
 P. E. Schneider,  Tim K. Schramm,  N. Sergueev,  S. M. Sharada,  
 Hengyuan Shen,  W. Skomorowski,  D. W. Small,  C. J. Stein,  
 Alistair J. Sterling,  Yingli Su,  Yu-Chuan Su,  E. J. Sundstrom,  
 J. Talbot,  Zhen Tao,  J. Thirman,  Hung-Yi Tsai,  T. Tsuchimochi,  
 N. M. Tubman,  C. Utku,  S. P. Veccham,  O. Vydrov,  Rahel Weiss,  
 J. Wenzel,  Jonathan Wong,  J. Witte,  H. Wu,  Yanze Wu,  A. Yamada,  
 Chou-Hsun Yang,  Kun Yao,  S. Yeganeh,  S. R. Yost,  Qi Yu,  A. Zech,  
 F. Zeller,  Chongxiao Zhao,  Igor Ying Zhang,  Xing Zhang,  Yu Zhang,  
 D. Zuev,  A. Aspuru-Guzik,  A. T. Bell,  N. A. Besley,  K. B. Bravaya,  
 B. R. Brooks,  D. Casanova,  Jeng-Da Chai,  Hsing-Ta Chen,  S. Coriani,  
 C. J. Cramer,  A. E. DePrince, III,  R. A. DiStasio Jr.,  A. Dreuw,  
 B. D. Dunietz,  T. R. Furlani,  W. A. Goddard III,  S. Grimme,  
 S. Hammes-Schiffer,  T. Head-Gordon,  W. J. Hehre,  Chao-Ping Hsu,  
 T.-C. Jagau,  Yousung Jung,  A. Klamt,  Jing Kong,  D. S. Lambrecht,  
 Xiangyuan Li,  WanZhen Liang,  N. J. Mayhall,  C. W. McCurdy,  J. B. Neaton,  
 T. Neudecker,  C. Ochsenfeld,  J. A. Parkhill,  R. Peverati,  
 V. A. Rassolov,  Haisheng Ren,  Yihan Shao,  L. V. Slipchenko,  
 R. P. Steele,  J. E. Subotnik,  A. J. W. Thom,  A. Tkatchenko,  
 D. G. Truhlar,  T. Van Voorhis,  Fan Wang,  T. A. Wesolowski,  K. B. Whaley,  
 H. L. Woodcock III,  P. M. Zimmerman,  S. Faraji,  P. M. W. Gill,  
 M. Head-Gordon,  J. M. Herbert,  A. I. Krylov

 Contributors to earlier versions of Q-Chem not listed above: 
 R. D. Adamson,  B. Austin,  R. Baer,  J. Baker,  G. J. O. Beran,  
 K. Brandhorst,  S. T. Brown,  E. F. C. Byrd,  Arup K. Chakraborty,  
 G. K. L. Chan,  Chun-Min Chang,  Yunqing Chen,  C.-L. Cheng,  
 Siu Hung Chien,  D. M. Chipman,  D. L. Crittenden,  H. Dachsel,  
 R. J. Doerksen,  A. D. Dutoi,  R. G. Edgar,  J. Fosso-Tande,  
 L. Fusti-Molnar,  D. Ghosh,  A. Ghysels,  A. Golubeva-Zadorozhnaya,  
 J. Gonthier,  M. S. Gordon,  S. R. Gwaltney,  G. Hawkins,  J. E. Herr,  
 A. Heyden,  S. Hirata,  E. G. Hohenstein,  G. Kedziora,  F. J. Keil,  
 C. Kelley,  Jihan Kim,  R. A. King,  R. Z. Khaliullin,  P. P. Korambath,  
 W. Kurlancheek,  A. Laurent,  A. M. Lee,  M. S. Lee,  S. V. Levchenko,  
 Ching Yeh Lin,  D. Liotard,  E. Livshits,  R. C. Lochan,  I. Lotan,  
 L. A. Martinez-Martinez,  P. E. Maslen,  N. Nair,  D. P. O'Neill,  
 D. Neuhauser,  E. Neuscamman,  C. M. Oana,  R. Olivares-Amaya,  R. Olson,  
 T. M. Perrine,  B. Peters,  P. A. Pieniazek,  A. Prociuk,  Y. M. Rhee,  
 J. Ritchie,  M. A. Rohrdanz,  E. Rosta,  N. J. Russ,  H. F. Schaefer III,  
 M. W. Schmidt,  N. E. Schultz,  S. Sharma,  N. Shenvi,  C. D. Sherrill,  
 A. C. Simmonett,  A. Sodt,  T. Stein,  D. Stuck,  K. S. Thanthiriwatte,  
 V. Vanovschi,  L. Vogt,  Tao Wang,  A. Warshel,  M. A. Watson,  
 C. F. Williams,  Q. Wu,  X. Xu,  Jun Yang,  W. Zhang,  Yan Zhao

   Please cite Q-Chem as follows:
  "Software for the frontiers of quantum chemistry:
   An overview of developments in the Q-Chem 5 package"
   J. Chem. Phys. 155, 084801 (2021)
   https://doi.org/10.1063/5.0055522 (open access)

 Q-Chem 6.2.0 for Intel X86 EM64T Linux

 Parts of Q-Chem use Armadillo 9.900.5 (Nocturnal Misbehaviour).
 http://arma.sourceforge.net/

 Q-Chem begins on Wed May 29 16:10:57 2024  

 Host: 
0

     Scratch files written to /data/scratch/cf3h_h2o_adiabatic_eda20240529161054//
 Processing $rem in /home/ymao/my_qchem/qchem_ymao_quick_fix/config/preferences:
 Processing $rem in /home/ymao/.qchemrc:

 Checking the input file for inconsistencies... 	...done.

--------------------------------------------------------------
User input:
--------------------------------------------------------------
$molecule
0 1
--
0 1
O    2.77773    -0.01318   0.00000   
H    3.35837    -0.00196   -0.76769  
H    3.35837    -0.00196   0.76769   
--
0 1
H    0.59878    -0.04551   0.00000   
C    -0.49895   -0.00740   0.00000   
F    -1.02270   -1.24292   0.00000   
F    -0.95441   0.63633    1.08615   
F    -0.95441   0.63633    -1.08615  
$end

$rem
JOBTYPE  OPT
GEN_SCFMAN  TRUE
METHOD  WB97X-V
BASIS  DEF2-SVPD
UNRESTRICTED  FALSE
MAX_SCF_CYCLES  2000
THRESH  14
SCF_CONVERGENCE  9
MEM_TOTAL  8000
MEM_STATIC  2000
SCF_GUESS  FRAGMO
SYMMETRY  FALSE
SYM_IGNORE  FALSE
SCF_ALGORITHM  DIIS
BASIS_LIN_DEP_THRESH  6
IDERIV  1
XC_GRID  000075000302
NL_GRID  1
FD_MAT_VEC_PROD  FALSE
GEOM_OPT_TOL_GRADIENT  50
GEOM_OPT_TOL_DISPLACEMENT  50
GEOM_OPT_TOL_ENERGY  10
GEOM_OPT_DRIVER  OPTIMIZE
GEOM_OPT_MAX_CYCLES  200
$end

--------------------------------------------------------------
 ----------------------------------------------------------------
             Standard Nuclear Orientation (Angstroms)
    I     Atom           X                Y                Z
 ----------------------------------------------------------------
    1      O       2.7740555556    -0.0207581315     0.0000000000
    2      H       3.3547185505    -0.0107989973    -0.7676900000
    3      H       3.3547185505    -0.0107989973     0.7676900000
    4      H       0.5950404893    -0.0483565417    -0.0000000000
    5      C      -0.5026041682    -0.0078629494    -0.0000000000
    6      F      -1.0290358217    -1.2422427317    -0.0000000000
    7      F      -0.9566652572     0.6368545483     1.0861500000
    8      F      -0.9566652572     0.6368545483    -1.0861500000
 ----------------------------------------------------------------
 Molecular Point Group                 Cs    NOp =  2
 Largest Abelian Subgroup              Cs    NOp =  2
 Nuclear Repulsion Energy =         189.00961396 hartrees
 There are       22 alpha and       22 beta electrons
 Requested basis set is def2-SVPD
 There are 56 shells and 136 basis functions

 Total QAlloc Memory Limit   8000 MB
 Mega-Array Size      1956 MB
 MEM_STATIC part      2000 MB

 A cutoff of  1.0D-14 yielded   1534 shell pairs
 There are      9082 function pairs (     10477 Cartesian)
 Smallest overlap matrix eigenvalue = 1.82E-04

 Scale SEOQF with 1.000000e-01/1.000000e-01/1.000000e-01

 Standard Electronic Orientation quadrupole field applied
 Nucleus-field energy     =     0.0000000031 hartrees
 Attempting to make child job directory: /data/scratch/cf3h_h2o_adiabatic_eda20240529161054//Frg1/
 Attempting to make child job directory: /data/scratch/cf3h_h2o_adiabatic_eda20240529161054//Frg2/
 Creating input file /data/scratch/cf3h_h2o_adiabatic_eda20240529161054/Frg1.input
 using default PutDataFrgm: nothing
 calling putenv with: QCSCRATCH=/data/scratch/cf3h_h2o_adiabatic_eda20240529161054/ 
 Spawning Job For Fragment 0
 Done Job For Fragment 0
 calling putenv with: QCSCRATCH=/data/scratch 
 calling putenv with: QCTHREADS=16 
 Creating input file /data/scratch/cf3h_h2o_adiabatic_eda20240529161054/Frg2.input
 using default PutDataFrgm: nothing
 calling putenv with: QCSCRATCH=/data/scratch/cf3h_h2o_adiabatic_eda20240529161054/ 
 Spawning Job For Fragment 1
 Done Job For Fragment 1
 calling putenv with: QCSCRATCH=/data/scratch 
 calling putenv with: QCTHREADS=16 
 Time for running child jobs:  CPU 1.85 s  wall 12.19 s

 -----------------------------------------------------------------------
  General SCF calculation program by
  Eric Jon Sundstrom, Paul Horn, Yuezhi Mao, Dmitri Zuev, Alec White,
  David Stuck, Shaama M.S., Shane Yost, Joonho Lee, David Small,
  Daniel Levine, Susi Lehtola, Hugh Burton, Evgeny Epifanovsky,
  Bang C. Huynh
 -----------------------------------------------------------------------
 Exchange:     0.1670 Hartree-Fock + 1.0000 wB97X-V + LR-HF
 Correlation:  1.0000 wB97X-V
 Using Euler-Maclaurin-Lebedev (75,302) quadrature formula
 Nonlocal Correlation:  VV10 with C = 0.0100 and b = 6.00 and scale = 1.00000
 Grid used for NLC:  SG-1 standard quadrature
 using 16 threads for integral computing
 -------------------------------------------------------
 OpenMP Integral computing Module                
 Release: version 1.0, May 2013, Q-Chem Inc. Pittsburgh 
 -------------------------------------------------------
 A restricted SCF calculation will be
 performed using DIIS
 SCF converges when DIIS error is below 1.0e-09
 ---------------------------------------
  Cycle       Energy         DIIS error
 ---------------------------------------
    1    -414.2488326464      1.28e-03  
    2    -414.2521529280      1.78e-04  
    3    -414.2523119775      7.73e-05  
    4    -414.2523233490      4.31e-05  
    5    -414.2523269485      5.36e-06  
    6    -414.2523270477      1.07e-06  
    7    -414.2523270534      3.87e-07  
    8    -414.2523270539      9.82e-08  
    9    -414.2523270539      5.55e-08  
   10    -414.2523270539      5.42e-09  
   11    -414.2523270539      1.57e-09  
   12    -414.2523270539      1.02e-09  
   13    -414.2523270539      1.30e-10  Convergence criterion met
 ---------------------------------------
 SCF time:   CPU 138.30s  wall 10.00s 
 SCF   energy =  -414.25232705
 Total energy =  -414.25232705
 
 --------------------------------------------------------------
             Orbital Energies (a.u.) and Symmetries
 --------------------------------------------------------------
 
 Alpha MOs, Restricted
 -- Occupied --                  
-24.804 -24.804 -24.804 -19.262 -10.526  -1.428  -1.335  -1.335
  1 A'    1 A"    2 A'    3 A'    4 A'    5 A'    2 A"    6 A'                 
 -1.157  -0.830  -0.720  -0.706  -0.705  -0.676  -0.583  -0.583
  7 A'    8 A'    9 A'    3 A"   10 A'    4 A"    5 A"   11 A'                 
 -0.545  -0.544  -0.543  -0.522  -0.488  -0.458
  6 A"   12 A'   13 A'    7 A"   14 A'   15 A'                                 
 -- Virtual --                   
  0.056   0.112   0.113   0.136   0.155   0.158   0.182   0.208
 16 A'    8 A"   17 A'   18 A'    9 A"   19 A'   20 A'   10 A"                 
  0.218   0.224   0.226   0.248   0.258   0.264   0.275   0.283
 21 A'   11 A"   22 A'   23 A'   24 A'   12 A"   25 A'   26 A'                 
  0.291   0.312   0.319   0.329   0.338   0.375   0.382   0.411
 13 A"   14 A"   27 A'   15 A"   28 A'   29 A'   30 A'   16 A"                 
  0.435   0.437   0.460   0.473   0.484   0.487   0.497   0.497
 17 A"   31 A'   32 A'   33 A'   18 A"   34 A'   19 A"   35 A'                 
  0.503   0.525   0.618   0.620   0.634   0.653   0.668   0.683
 20 A"   36 A'   37 A'   21 A"   38 A'   39 A'   22 A"   40 A'                 
  0.688   0.711   0.729   0.786   0.787   0.805   0.818   0.822
 23 A"   41 A'   42 A'   43 A'   24 A"   44 A'   25 A"   45 A'                 
  0.850   0.871   0.874   0.910   0.910   0.923   0.950   0.991
 26 A"   27 A"   46 A'   47 A'   28 A"   48 A'   29 A"   49 A'                 
  1.032   1.051   1.117   1.118   1.151   1.221   1.251   1.301
 30 A"   50 A'   31 A"   51 A'   52 A'   53 A'   32 A"   54 A'                 
  1.340   1.588   1.620   1.634   1.751   1.785   1.807   1.834
 55 A'   56 A'   33 A"   57 A'   34 A"   35 A"   58 A'   59 A'                 
  1.839   1.840   1.851   1.868   1.905   1.961   2.054   2.078
 60 A'   36 A"   37 A"   38 A"   61 A'   62 A'   39 A"   63 A'                 
  2.139   2.173   2.173   2.214   2.214   2.268   2.316   2.327
 64 A'   40 A"   65 A'   66 A'   41 A"   67 A'   42 A"   68 A'                 
  2.382   2.416   2.423   2.432   2.523   3.023   3.099   3.138
 43 A"   69 A'   44 A"   70 A'   71 A'   72 A'   73 A'   45 A"                 
  3.313   3.357   3.420   3.432   3.433   3.448   3.454   3.498
 74 A'   46 A"   47 A"   75 A'   48 A"   76 A'   49 A"   77 A'                 
  3.504   3.524   3.620   3.747   3.789   3.791   3.870   4.070
 50 A"   78 A'   79 A'   80 A'   81 A'   51 A"   82 A'   52 A"                 
  4.070   4.119
 83 A'   53 A"                                                                 
 
 Beta MOs, Restricted
 -- Occupied --                  
-24.804 -24.804 -24.804 -19.262 -10.526  -1.428  -1.335  -1.335
  1 A'    1 A"    2 A'    3 A'    4 A'    5 A'    2 A"    6 A'                 
 -1.157  -0.830  -0.720  -0.706  -0.705  -0.676  -0.583  -0.583
  7 A'    8 A'    9 A'    3 A"   10 A'    4 A"    5 A"   11 A'                 
 -0.545  -0.544  -0.543  -0.522  -0.488  -0.458
  6 A"   12 A'   13 A'    7 A"   14 A'   15 A'                                 
 -- Virtual --                   
  0.056   0.112   0.113   0.136   0.155   0.158   0.182   0.208
 16 A'    8 A"   17 A'   18 A'    9 A"   19 A'   20 A'   10 A"                 
  0.218   0.224   0.226   0.248   0.258   0.264   0.275   0.283
 21 A'   11 A"   22 A'   23 A'   24 A'   12 A"   25 A'   26 A'                 
  0.291   0.312   0.319   0.329   0.338   0.375   0.382   0.411
 13 A"   14 A"   27 A'   15 A"   28 A'   29 A'   30 A'   16 A"                 
  0.435   0.437   0.460   0.473   0.484   0.487   0.497   0.497
 17 A"   31 A'   32 A'   33 A'   18 A"   34 A'   19 A"   35 A'                 
  0.503   0.525   0.618   0.620   0.634   0.653   0.668   0.683
 20 A"   36 A'   37 A'   21 A"   38 A'   39 A'   22 A"   40 A'                 
  0.688   0.711   0.729   0.786   0.787   0.805   0.818   0.822
 23 A"   41 A'   42 A'   43 A'   24 A"   44 A'   25 A"   45 A'                 
  0.850   0.871   0.874   0.910   0.910   0.923   0.950   0.991
 26 A"   27 A"   46 A'   47 A'   28 A"   48 A'   29 A"   49 A'                 
  1.032   1.051   1.117   1.118   1.151   1.221   1.251   1.301
 30 A"   50 A'   31 A"   51 A'   52 A'   53 A'   32 A"   54 A'                 
  1.340   1.588   1.620   1.634   1.751   1.785   1.807   1.834
 55 A'   56 A'   33 A"   57 A'   34 A"   35 A"   58 A'   59 A'                 
  1.839   1.840   1.851   1.868   1.905   1.961   2.054   2.078
 60 A'   36 A"   37 A"   38 A"   61 A'   62 A'   39 A"   63 A'                 
  2.139   2.173   2.173   2.214   2.214   2.268   2.316   2.327
 64 A'   40 A"   65 A'   66 A'   41 A"   67 A'   42 A"   68 A'                 
  2.382   2.416   2.423   2.432   2.523   3.023   3.099   3.138
 43 A"   69 A'   44 A"   70 A'   71 A'   72 A'   73 A'   45 A"                 
  3.313   3.357   3.420   3.432   3.433   3.448   3.454   3.498
 74 A'   46 A"   47 A"   75 A'   48 A"   76 A'   49 A"   77 A'                 
  3.504   3.524   3.620   3.747   3.789   3.791   3.870   4.070
 50 A"   78 A'   79 A'   80 A'   81 A'   51 A"   82 A'   52 A"                 
  4.070   4.119
 83 A'   53 A"                                                                 
 --------------------------------------------------------------
 
          Ground-State Mulliken Net Atomic Charges

     Atom                 Charge (a.u.)
  ----------------------------------------
      1 O                    -0.235907
      2 H                     0.131202
      3 H                     0.131202
      4 H                    -0.648867
      5 C                     1.873873
      6 F                    -0.414902
      7 F                    -0.418301
      8 F                    -0.418301
  ----------------------------------------
  Sum of atomic charges =     0.000000

 -----------------------------------------------------------------
                    Cartesian Multipole Moments
 -----------------------------------------------------------------
    Charge (ESU x 10^10)
                -0.0000
    Dipole Moment (Debye)
         X       4.1801      Y      -0.0354      Z      -0.0000
       Tot       4.1803
    Quadrupole Moments (Debye-Ang)
        XX     -16.2146     XY      -0.0001     YY     -30.5507
        XZ      -0.0000     YZ      -0.0000     ZZ     -27.1922
    Octopole Moments (Debye-Ang^2)
       XXX      50.5961    XXY       0.3472    XYY      -3.1529
       YYY       1.3702    XXZ      -0.0000    XYZ       0.0000
       YYZ      -0.0000    XZZ       7.6675    YZZ      -1.2364
       ZZZ      -0.0000
    Hexadecapole Moments (Debye-Ang^3)
      XXXX    -229.5451   XXXY       0.4802   XXYY    -100.1186
      XYYY      -0.2372   YYYY     -95.2626   XXXZ      -0.0000
      XXYZ      -0.0000   XYYZ       0.0000   YYYZ      -0.0000
      XXZZ     -64.8387   XYZZ       0.5890   YYZZ     -31.9032
      XZZZ       0.0000   YZZZ      -0.0000   ZZZZ     -94.3507
 -----------------------------------------------------------------
 Calculating analytic gradient of the SCF energy
 Gradient of SCF Energy
            1           2           3           4           5           6
    1  -0.0000069   0.0000032   0.0000032  -0.0000261   0.0000637  -0.0000196
    2   0.0000077  -0.0000015  -0.0000015  -0.0000117   0.0000011  -0.0000170
    3   0.0000000   0.0000076  -0.0000076   0.0000000   0.0000000   0.0000000
            7           8
    1  -0.0000087  -0.0000087
    2   0.0000114   0.0000114
    3   0.0000111  -0.0000111
 Max gradient component =       6.371E-05
 RMS gradient           =       1.641E-05
 Gradient time:  CPU 28.86 s  wall 1.98 s
 Geometry Optimization Parameters
   NAtoms,    NIC,     NZ,  NCons,   NDum,   NFix, NCnnct, MaxDiis
        8      38       0       0       0       0       0       0


** GEOMETRY OPTIMIZATION IN DELOCALIZED INTERNAL COORDINATES **
   Searching for a Minimum

   Optimization Cycle:   1

                       Coordinates (Angstroms)
     ATOM                X               Y               Z
      1  O         2.7740555556   -0.0207581315    0.0000000000
      2  H         3.3547185505   -0.0107989973   -0.7676900000
      3  H         3.3547185505   -0.0107989973    0.7676900000
      4  H         0.5950404893   -0.0483565417    0.0000000000
      5  C        -0.5026041682   -0.0078629494    0.0000000000
      6  F        -1.0290358217   -1.2422427317    0.0000000000
      7  F        -0.9566652572    0.6368545483    1.0861500000
      8  F        -0.9566652572    0.6368545483   -1.0861500000
   Point Group: cs    Number of degrees of freedom:    11


   Energy is   -414.252327054


 Attempting to generate delocalized internal coordinates
 Initial Hessian constructed with Jon Baker's OPTIMIZE code

 11 Hessian modes will be used to form the next step
  Hessian Eigenvalues:
     0.002158    0.032463    0.093882    0.160000    0.182067    0.203045
     0.207306    0.338606    0.549158    0.567104    0.567707

 Minimum search - taking simple RFO step
 Searching for Lamda that Minimizes Along All modes
 Value Taken    Lamda =  -0.00000001
 Step Taken.  Stepsize is  0.000297

                             Maximum     Tolerance    Cnvgd?
         Gradient           0.000040      0.000050     YES
         Displacement       0.000210      0.000050      NO
         Energy change     *********      0.000000      NO


 New Cartesian Coordinates Obtained by Inverse Iteration

 Displacement from previous Coordinates is:  0.000313
 ----------------------------------------------------------------
             Standard Nuclear Orientation (Angstroms)
    I     Atom           X                Y                Z
 ----------------------------------------------------------------
    1      O       2.7740685017    -0.0208102297     0.0000000000
    2      H       3.3547124900    -0.0108093304    -0.7677088925
    3      H       3.3547124900    -0.0108093304     0.7677088925
    4      H       0.5950449061    -0.0483191250     0.0000000000
    5      C      -0.5026408376    -0.0078149509     0.0000000000
    6      F      -1.0289166284    -1.2422370092     0.0000000000
    7      F      -0.9567091402     0.6368453617     1.0861611713
    8      F      -0.9567091402     0.6368453617    -1.0861611713
 ----------------------------------------------------------------
 Molecular Point Group                 Cs    NOp =  2
 Largest Abelian Subgroup              Cs    NOp =  2
 Nuclear Repulsion Energy =         189.01021761 hartrees
 There are       22 alpha and       22 beta electrons
 Applying Cartesian multipole field
    Component          Value
    ---------          -----
     (2,0,0)        1.00000E-11
     (0,2,0)        2.00000E-11
     (0,0,2)       -3.00000E-11
 Nucleus-field energy     =     0.0000000031 hartrees
 Requested basis set is def2-SVPD
 There are 56 shells and 136 basis functions
 A cutoff of  1.0D-14 yielded   1534 shell pairs
 There are      9082 function pairs (     10477 Cartesian)
 Smallest overlap matrix eigenvalue = 1.82E-04
 Read the previous MOs as SCF guess

 -----------------------------------------------------------------------
  General SCF calculation program by
  Eric Jon Sundstrom, Paul Horn, Yuezhi Mao, Dmitri Zuev, Alec White,
  David Stuck, Shaama M.S., Shane Yost, Joonho Lee, David Small,
  Daniel Levine, Susi Lehtola, Hugh Burton, Evgeny Epifanovsky,
  Bang C. Huynh
 -----------------------------------------------------------------------
 Exchange:     0.1670 Hartree-Fock + 1.0000 wB97X-V + LR-HF
 Correlation:  1.0000 wB97X-V
 Using Euler-Maclaurin-Lebedev (75,302) quadrature formula
 Nonlocal Correlation:  VV10 with C = 0.0100 and b = 6.00 and scale = 1.00000
 Grid used for NLC:  SG-1 standard quadrature
 A restricted SCF calculation will be
 performed using DIIS
 SCF converges when DIIS error is below 1.0e-09
 ---------------------------------------
  Cycle       Energy         DIIS error
 ---------------------------------------
    1    -414.2523270494      2.33e-06  
    2    -414.2523270584      3.76e-07  
    3    -414.2523270589      2.34e-07  
    4    -414.2523270590      7.90e-08  
    5    -414.2523270590      1.50e-08  
    6    -414.2523270590      2.19e-09  
    7    -414.2523270590      4.84e-10  Convergence criterion met
 ---------------------------------------
 SCF time:   CPU 72.71s  wall 5.00s 
 SCF   energy =  -414.25232706
 Total energy =  -414.25232706
 
 --------------------------------------------------------------
             Orbital Energies (a.u.) and Symmetries
 --------------------------------------------------------------
 
 Alpha MOs, Restricted
 -- Occupied --                  
-24.804 -24.804 -24.804 -19.262 -10.526  -1.428  -1.335  -1.335
  1 A'    1 A"    2 A'    3 A'    4 A'    5 A'    2 A"    6 A'                 
 -1.157  -0.830  -0.720  -0.706  -0.705  -0.676  -0.583  -0.583
  7 A'    8 A'    9 A'    3 A"   10 A'    4 A"    5 A"   11 A'                 
 -0.545  -0.544  -0.543  -0.522  -0.488  -0.458
  6 A"   12 A'   13 A'    7 A"   14 A'   15 A'                                 
 -- Virtual --                   
  0.056   0.112   0.113   0.136   0.155   0.158   0.182   0.208
 16 A'    8 A"   17 A'   18 A'    9 A"   19 A'   20 A'   10 A"                 
  0.218   0.224   0.226   0.248   0.258   0.265   0.275   0.283
 21 A'   11 A"   22 A'   23 A'   24 A'   12 A"   25 A'   26 A'                 
  0.291   0.312   0.319   0.329   0.338   0.375   0.382   0.411
 13 A"   14 A"   27 A'   15 A"   28 A'   29 A'   30 A'   16 A"                 
  0.435   0.437   0.460   0.473   0.484   0.487   0.497   0.497
 17 A"   31 A'   32 A'   33 A'   18 A"   34 A'   19 A"   35 A'                 
  0.503   0.525   0.618   0.620   0.634   0.653   0.668   0.683
 20 A"   36 A'   37 A'   21 A"   38 A'   39 A'   22 A"   40 A'                 
  0.688   0.711   0.729   0.786   0.787   0.805   0.818   0.822
 23 A"   41 A'   42 A'   43 A'   24 A"   44 A'   25 A"   45 A'                 
  0.850   0.871   0.874   0.910   0.910   0.923   0.950   0.991
 26 A"   27 A"   46 A'   47 A'   28 A"   48 A'   29 A"   49 A'                 
  1.032   1.051   1.117   1.118   1.151   1.221   1.251   1.301
 30 A"   50 A'   31 A"   51 A'   52 A'   53 A'   32 A"   54 A'                 
  1.340   1.588   1.620   1.634   1.751   1.785   1.807   1.834
 55 A'   56 A'   33 A"   57 A'   34 A"   35 A"   58 A'   59 A'                 
  1.839   1.840   1.851   1.868   1.905   1.961   2.054   2.078
 60 A'   36 A"   37 A"   38 A"   61 A'   62 A'   39 A"   63 A'                 
  2.139   2.173   2.173   2.214   2.214   2.268   2.316   2.327
 64 A'   40 A"   65 A'   66 A'   41 A"   67 A'   42 A"   68 A'                 
  2.382   2.416   2.423   2.432   2.523   3.023   3.099   3.138
 43 A"   69 A'   44 A"   70 A'   71 A'   72 A'   73 A'   45 A"                 
  3.313   3.357   3.420   3.432   3.433   3.448   3.454   3.498
 74 A'   46 A"   47 A"   75 A'   48 A"   76 A'   49 A"   77 A'                 
  3.504   3.524   3.620   3.747   3.789   3.791   3.870   4.070
 50 A"   78 A'   79 A'   80 A'   81 A'   51 A"   82 A'   52 A"                 
  4.070   4.119
 83 A'   53 A"                                                                 
 
 Beta MOs, Restricted
 -- Occupied --                  
-24.804 -24.804 -24.804 -19.262 -10.526  -1.428  -1.335  -1.335
  1 A'    1 A"    2 A'    3 A'    4 A'    5 A'    2 A"    6 A'                 
 -1.157  -0.830  -0.720  -0.706  -0.705  -0.676  -0.583  -0.583
  7 A'    8 A'    9 A'    3 A"   10 A'    4 A"    5 A"   11 A'                 
 -0.545  -0.544  -0.543  -0.522  -0.488  -0.458
  6 A"   12 A'   13 A'    7 A"   14 A'   15 A'                                 
 -- Virtual --                   
  0.056   0.112   0.113   0.136   0.155   0.158   0.182   0.208
 16 A'    8 A"   17 A'   18 A'    9 A"   19 A'   20 A'   10 A"                 
  0.218   0.224   0.226   0.248   0.258   0.265   0.275   0.283
 21 A'   11 A"   22 A'   23 A'   24 A'   12 A"   25 A'   26 A'                 
  0.291   0.312   0.319   0.329   0.338   0.375   0.382   0.411
 13 A"   14 A"   27 A'   15 A"   28 A'   29 A'   30 A'   16 A"                 
  0.435   0.437   0.460   0.473   0.484   0.487   0.497   0.497
 17 A"   31 A'   32 A'   33 A'   18 A"   34 A'   19 A"   35 A'                 
  0.503   0.525   0.618   0.620   0.634   0.653   0.668   0.683
 20 A"   36 A'   37 A'   21 A"   38 A'   39 A'   22 A"   40 A'                 
  0.688   0.711   0.729   0.786   0.787   0.805   0.818   0.822
 23 A"   41 A'   42 A'   43 A'   24 A"   44 A'   25 A"   45 A'                 
  0.850   0.871   0.874   0.910   0.910   0.923   0.950   0.991
 26 A"   27 A"   46 A'   47 A'   28 A"   48 A'   29 A"   49 A'                 
  1.032   1.051   1.117   1.118   1.151   1.221   1.251   1.301
 30 A"   50 A'   31 A"   51 A'   52 A'   53 A'   32 A"   54 A'                 
  1.340   1.588   1.620   1.634   1.751   1.785   1.807   1.834
 55 A'   56 A'   33 A"   57 A'   34 A"   35 A"   58 A'   59 A'                 
  1.839   1.840   1.851   1.868   1.905   1.961   2.054   2.078
 60 A'   36 A"   37 A"   38 A"   61 A'   62 A'   39 A"   63 A'                 
  2.139   2.173   2.173   2.214   2.214   2.268   2.316   2.327
 64 A'   40 A"   65 A'   66 A'   41 A"   67 A'   42 A"   68 A'                 
  2.382   2.416   2.423   2.432   2.523   3.023   3.099   3.138
 43 A"   69 A'   44 A"   70 A'   71 A'   72 A'   73 A'   45 A"                 
  3.313   3.357   3.420   3.432   3.433   3.448   3.454   3.498
 74 A'   46 A"   47 A"   75 A'   48 A"   76 A'   49 A"   77 A'                 
  3.504   3.524   3.620   3.747   3.789   3.791   3.870   4.070
 50 A"   78 A'   79 A'   80 A'   81 A'   51 A"   82 A'   52 A"                 
  4.070   4.119
 83 A'   53 A"                                                                 
 --------------------------------------------------------------
 
          Ground-State Mulliken Net Atomic Charges

     Atom                 Charge (a.u.)
  ----------------------------------------
      1 O                    -0.235924
      2 H                     0.131210
      3 H                     0.131210
      4 H                    -0.648710
      5 C                     1.873682
      6 F                    -0.414894
      7 F                    -0.418288
      8 F                    -0.418288
  ----------------------------------------
  Sum of atomic charges =     0.000000

 -----------------------------------------------------------------
                    Cartesian Multipole Moments
 -----------------------------------------------------------------
    Charge (ESU x 10^10)
                 0.0000
    Dipole Moment (Debye)
         X       4.1798      Y      -0.0351      Z       0.0000
       Tot       4.1800
    Quadrupole Moments (Debye-Ang)
        XX     -16.2148     XY       0.0004     YY     -30.5506
        XZ      -0.0000     YZ       0.0000     ZZ     -27.1920
    Octopole Moments (Debye-Ang^2)
       XXX      50.5933    XXY       0.3481    XYY      -3.1532
       YYY       1.3706    XXZ      -0.0000    XYZ      -0.0000
       YYZ      -0.0000    XZZ       7.6678    YZZ      -1.2362
       ZZZ      -0.0000
    Hexadecapole Moments (Debye-Ang^3)
      XXXX    -229.5563   XXXY       0.4896   XXYY    -100.1190
      XYYY      -0.2310   YYYY     -95.2610   XXXZ      -0.0000
      XXYZ       0.0000   XYYZ      -0.0000   YYYZ       0.0000
      XXZZ     -64.8379   XYZZ       0.5910   YYZZ     -31.9033
      XZZZ      -0.0000   YZZZ       0.0000   ZZZZ     -94.3513
 -----------------------------------------------------------------
 Calculating analytic gradient of the SCF energy
 Gradient of SCF Energy
            1           2           3           4           5           6
    1  -0.0000064   0.0000028   0.0000028   0.0000001  -0.0000031   0.0000030
    2   0.0000072  -0.0000013  -0.0000013  -0.0000259   0.0000152   0.0000009
    3   0.0000000   0.0000003  -0.0000003   0.0000000  -0.0000000   0.0000000
            7           8
    1   0.0000005   0.0000005
    2   0.0000026   0.0000026
    3   0.0000090  -0.0000090
 Max gradient component =       2.595E-05
 RMS gradient           =       7.112E-06
 Gradient time:  CPU 28.51 s  wall 1.92 s
 Geometry Optimization Parameters
   NAtoms,    NIC,     NZ,  NCons,   NDum,   NFix, NCnnct, MaxDiis
        8      38       0       0       0       0       0       0

 Cartesian Hessian Update
 Hessian updated using BFGS update
**WARNING** Hereditary positive definiteness endangered
 due to small product of step size times gradient change
**WARNING** Small scalar product
 Hessian update skipped this cycle


** GEOMETRY OPTIMIZATION IN DELOCALIZED INTERNAL COORDINATES **
   Searching for a Minimum

   Optimization Cycle:   2

                       Coordinates (Angstroms)
     ATOM                X               Y               Z
      1  O         2.7740685017   -0.0208102297    0.0000000000
      2  H         3.3547124900   -0.0108093304   -0.7677088925
      3  H         3.3547124900   -0.0108093304    0.7677088925
      4  H         0.5950449061   -0.0483191250    0.0000000000
      5  C        -0.5026408376   -0.0078149509    0.0000000000
      6  F        -1.0289166284   -1.2422370092    0.0000000000
      7  F        -0.9567091402    0.6368453617    1.0861611713
      8  F        -0.9567091402    0.6368453617   -1.0861611713
   Point Group: cs    Number of degrees of freedom:    11


   Energy is   -414.252327059

 Hessian updated using BFGS update
**WARNING** Hereditary positive definiteness endangered
 due to small product of step size times gradient change
**WARNING** Small scalar product
 Hessian update skipped this cycle

 11 Hessian modes will be used to form the next step
  Hessian Eigenvalues:
     0.002158    0.032463    0.093882    0.160000    0.182067    0.203045
     0.207306    0.338606    0.549158    0.567104    0.567707

 Minimum search - taking simple RFO step
 Searching for Lamda that Minimizes Along All modes
 Value Taken    Lamda =  -0.00000000
 Step Taken.  Stepsize is  0.000131

                             Maximum     Tolerance    Cnvgd?
         Gradient           0.000012      0.000050     YES
         Displacement       0.000091      0.000050      NO
         Energy change     -0.000000      0.000000     YES


                       Distance Matrix (Angstroms)
             O (  1)   H (  2)   H (  3)   H (  4)   C (  5)   F (  6)
   H (  2)  0.962613
   H (  3)  0.962613  1.535418
   H (  4)  2.179197  2.864708  2.864708
   C (  5)  3.276735  3.933009  3.933009  1.098433
   F (  6)  3.994318  4.617575  4.617575  2.015612  1.341925
   F (  7)  3.940934  4.737578  4.371410  2.014234  1.342204  2.171615
   F (  8)  3.940934  4.371410  4.737578  2.014234  1.342204  2.171615
             F (  7)
   F (  8)  2.172322
 
 Final energy is   -414.252327058979     


 ******************************
 **  OPTIMIZATION CONVERGED  **
 ******************************

                       Coordinates (Angstroms)
     ATOM                X               Y               Z
      1  O         2.7740685017   -0.0208102297    0.0000000000
      2  H         3.3547124900   -0.0108093304   -0.7677088925
      3  H         3.3547124900   -0.0108093304    0.7677088925
      4  H         0.5950449061   -0.0483191250    0.0000000000
      5  C        -0.5026408376   -0.0078149509    0.0000000000
      6  F        -1.0289166284   -1.2422370092    0.0000000000
      7  F        -0.9567091402    0.6368453617    1.0861611713
      8  F        -0.9567091402    0.6368453617   -1.0861611713

Z-matrix Print:
$molecule
0 1
C 
H  1 1.098433
F  1 1.341925 2 110.976955
F  1 1.342204 2 110.841337 3 -120.015146 0
F  1 1.342204 2 110.841337 3 120.015146 0
O  2 2.179197 1 177.163480 3 -180.000000 0
H  6 0.962613 2 127.105069 1 89.800703 0
H  6 0.962613 2 127.105069 1 -89.800703 0
$end

 
 --------------------------------------------------------------
             Orbital Energies (a.u.) and Symmetries
 --------------------------------------------------------------
 
 Alpha MOs, Restricted
 -- Occupied --                  
-24.804 -24.804 -24.804 -19.262 -10.526  -1.428  -1.335  -1.335
  1 A'    1 A"    2 A'    3 A'    4 A'    5 A'    2 A"    6 A'                 
 -1.157  -0.830  -0.720  -0.706  -0.705  -0.676  -0.583  -0.583
  7 A'    8 A'    9 A'    3 A"   10 A'    4 A"    5 A"   11 A'                 
 -0.545  -0.544  -0.543  -0.522  -0.488  -0.458
  6 A"   12 A'   13 A'    7 A"   14 A'   15 A'                                 
 -- Virtual --                   
  0.056   0.112   0.113   0.136   0.155   0.158   0.182   0.208
 16 A'    8 A"   17 A'   18 A'    9 A"   19 A'   20 A'   10 A"                 
  0.218   0.224   0.226   0.248   0.258   0.265   0.275   0.283
 21 A'   11 A"   22 A'   23 A'   24 A'   12 A"   25 A'   26 A'                 
  0.291   0.312   0.319   0.329   0.338   0.375   0.382   0.411
 13 A"   14 A"   27 A'   15 A"   28 A'   29 A'   30 A'   16 A"                 
  0.435   0.437   0.460   0.473   0.484   0.487   0.497   0.497
 17 A"   31 A'   32 A'   33 A'   18 A"   34 A'   19 A"   35 A'                 
  0.503   0.525   0.618   0.620   0.634   0.653   0.668   0.683
 20 A"   36 A'   37 A'   21 A"   38 A'   39 A'   22 A"   40 A'                 
  0.688   0.711   0.729   0.786   0.787   0.805   0.818   0.822
 23 A"   41 A'   42 A'   43 A'   24 A"   44 A'   25 A"   45 A'                 
  0.850   0.871   0.874   0.910   0.910   0.923   0.950   0.991
 26 A"   27 A"   46 A'   47 A'   28 A"   48 A'   29 A"   49 A'                 
  1.032   1.051   1.117   1.118   1.151   1.221   1.251   1.301
 30 A"   50 A'   31 A"   51 A'   52 A'   53 A'   32 A"   54 A'                 
  1.340   1.588   1.620   1.634   1.751   1.785   1.807   1.834
 55 A'   56 A'   33 A"   57 A'   34 A"   35 A"   58 A'   59 A'                 
  1.839   1.840   1.851   1.868   1.905   1.961   2.054   2.078
 60 A'   36 A"   37 A"   38 A"   61 A'   62 A'   39 A"   63 A'                 
  2.139   2.173   2.173   2.214   2.214   2.268   2.316   2.327
 64 A'   40 A"   65 A'   66 A'   41 A"   67 A'   42 A"   68 A'                 
  2.382   2.416   2.423   2.432   2.523   3.023   3.099   3.138
 43 A"   69 A'   44 A"   70 A'   71 A'   72 A'   73 A'   45 A"                 
  3.313   3.357   3.420   3.432   3.433   3.448   3.454   3.498
 74 A'   46 A"   47 A"   75 A'   48 A"   76 A'   49 A"   77 A'                 
  3.504   3.524   3.620   3.747   3.789   3.791   3.870   4.070
 50 A"   78 A'   79 A'   80 A'   81 A'   51 A"   82 A'   52 A"                 
  4.070   4.119
 83 A'   53 A"                                                                 
 
 Beta MOs, Restricted
 -- Occupied --                  
-24.804 -24.804 -24.804 -19.262 -10.526  -1.428  -1.335  -1.335
  1 A'    1 A"    2 A'    3 A'    4 A'    5 A'    2 A"    6 A'                 
 -1.157  -0.830  -0.720  -0.706  -0.705  -0.676  -0.583  -0.583
  7 A'    8 A'    9 A'    3 A"   10 A'    4 A"    5 A"   11 A'                 
 -0.545  -0.544  -0.543  -0.522  -0.488  -0.458
  6 A"   12 A'   13 A'    7 A"   14 A'   15 A'                                 
 -- Virtual --                   
  0.056   0.112   0.113   0.136   0.155   0.158   0.182   0.208
 16 A'    8 A"   17 A'   18 A'    9 A"   19 A'   20 A'   10 A"                 
  0.218   0.224   0.226   0.248   0.258   0.265   0.275   0.283
 21 A'   11 A"   22 A'   23 A'   24 A'   12 A"   25 A'   26 A'                 
  0.291   0.312   0.319   0.329   0.338   0.375   0.382   0.411
 13 A"   14 A"   27 A'   15 A"   28 A'   29 A'   30 A'   16 A"                 
  0.435   0.437   0.460   0.473   0.484   0.487   0.497   0.497
 17 A"   31 A'   32 A'   33 A'   18 A"   34 A'   19 A"   35 A'                 
  0.503   0.525   0.618   0.620   0.634   0.653   0.668   0.683
 20 A"   36 A'   37 A'   21 A"   38 A'   39 A'   22 A"   40 A'                 
  0.688   0.711   0.729   0.786   0.787   0.805   0.818   0.822
 23 A"   41 A'   42 A'   43 A'   24 A"   44 A'   25 A"   45 A'                 
  0.850   0.871   0.874   0.910   0.910   0.923   0.950   0.991
 26 A"   27 A"   46 A'   47 A'   28 A"   48 A'   29 A"   49 A'                 
  1.032   1.051   1.117   1.118   1.151   1.221   1.251   1.301
 30 A"   50 A'   31 A"   51 A'   52 A'   53 A'   32 A"   54 A'                 
  1.340   1.588   1.620   1.634   1.751   1.785   1.807   1.834
 55 A'   56 A'   33 A"   57 A'   34 A"   35 A"   58 A'   59 A'                 
  1.839   1.840   1.851   1.868   1.905   1.961   2.054   2.078
 60 A'   36 A"   37 A"   38 A"   61 A'   62 A'   39 A"   63 A'                 
  2.139   2.173   2.173   2.214   2.214   2.268   2.316   2.327
 64 A'   40 A"   65 A'   66 A'   41 A"   67 A'   42 A"   68 A'                 
  2.382   2.416   2.423   2.432   2.523   3.023   3.099   3.138
 43 A"   69 A'   44 A"   70 A'   71 A'   72 A'   73 A'   45 A"                 
  3.313   3.357   3.420   3.432   3.433   3.448   3.454   3.498
 74 A'   46 A"   47 A"   75 A'   48 A"   76 A'   49 A"   77 A'                 
  3.504   3.524   3.620   3.747   3.789   3.791   3.870   4.070
 50 A"   78 A'   79 A'   80 A'   81 A'   51 A"   82 A'   52 A"                 
  4.070   4.119
 83 A'   53 A"                                                                 
 --------------------------------------------------------------
 
          Ground-State Mulliken Net Atomic Charges

     Atom                 Charge (a.u.)
  ----------------------------------------
      1 O                    -0.235924
      2 H                     0.131210
      3 H                     0.131210
      4 H                    -0.648710
      5 C                     1.873682
      6 F                    -0.414894
      7 F                    -0.418288
      8 F                    -0.418288
  ----------------------------------------
  Sum of atomic charges =     0.000000

 -----------------------------------------------------------------
                    Cartesian Multipole Moments
 -----------------------------------------------------------------
    Charge (ESU x 10^10)
                 0.0000
    Dipole Moment (Debye)
         X       4.1798      Y      -0.0351      Z       0.0000
       Tot       4.1800
    Quadrupole Moments (Debye-Ang)
        XX     -16.2148     XY       0.0004     YY     -30.5506
        XZ      -0.0000     YZ       0.0000     ZZ     -27.1920
    Octopole Moments (Debye-Ang^2)
       XXX      50.5933    XXY       0.3481    XYY      -3.1532
       YYY       1.3706    XXZ      -0.0000    XYZ      -0.0000
       YYZ      -0.0000    XZZ       7.6678    YZZ      -1.2362
       ZZZ      -0.0000
    Hexadecapole Moments (Debye-Ang^3)
      XXXX    -229.5563   XXXY       0.4896   XXYY    -100.1190
      XYYY      -0.2310   YYYY     -95.2610   XXXZ      -0.0000
      XXYZ       0.0000   XYYZ      -0.0000   YYYZ       0.0000
      XXZZ     -64.8379   XYZZ       0.5910   YYZZ     -31.9033
      XZZZ      -0.0000   YZZZ       0.0000   ZZZZ     -94.3513
 -----------------------------------------------------------------
 Total job time:  31.74s(wall), 276.59s(cpu) 
 Wed May 29 16:11:29 2024

        *************************************************************
        *                                                           *
        *  Thank you very much for using Q-Chem.  Have a nice day.  *
        *                                                           *
        *************************************************************


 
User input: 2 of 6 
 
                  Welcome to Q-Chem
     A Quantum Leap Into The Future Of Chemistry


 Q-Chem 6.2 (devel), Q-Chem, Inc., Pleasanton, CA (2024)

 E. Epifanovsky,  A. T. B. Gilbert,  Xintian Feng,  Joonho Lee,  Yuezhi Mao,  
 N. Mardirossian,  P. Pokhilko,  A. White,  M. Wormit,  M. P. Coons,  
 A. L. Dempwolff,  Zhengting Gan,  D. Hait,  P. R. Horn,  L. D. Jacobson,  
 I. Kaliman,  J. Kussmann,  A. W. Lange,  Ka Un Lao,  D. S. Levine,  Jie Liu,  
 S. C. McKenzie,  A. F. Morrison,  K. D. Nanda,  F. Plasser,  D. R. Rehn,  
 M. L. Vidal,  Zhi-Qiang You,  Ying Zhu,  Huseyin Aksu,  B. Alam,  
 B. Albrecht,  A. Aldossary,  E. Alguire,  J. H. Andersen,  
 J. E. Arias-Martinez,  V. Athavale,  D. Barton,  K. Begam,  A. Behn,  
 N. Bellonzi,  Y. A. Bernard,  E. J. Berquist,  H. Burton,  A. Carreras,  
 K. Carter-Fenk,  Mathew Chow,  Romit Chakraborty,  Chandrima Chakravarty,  
 Junhan Chen,  A. D. Chien,  K. D. Closser,  V. Cofer-Shabica,  L. Cunha,  
 S. Dasgupta,  Jia Deng,  Joseph Dickinson,  M. de Wergifosse,  
 M. Diedenhofen,  Hainam Do,  Wenjie Dou,  S. Ehlert,  Po-Tung Fang,  
 S. Fatehi,  Qingguo Feng,  Jonathan Fetherolf,  T. Friedhoff,  
 Thomas Froitzheim,  Sarai Folkestad,  B. Ganoe,  J. Gayvert,  Qinghui Ge,  
 G. Gidofalvi,  M. Gimferrer,  M. Goldey,  Montgomery Gray,  J. Gomes,  
 C. Gonzalez-Espinoza,  S. Gulania,  A. Gunina,  J. A. Gyamfi,  
 M. W. D. Hanson-Heine,  P. H. P. Harbach,  A. W. Hauser,  M. F. Herbst,  
 M. Hernandez Vera,  M. Hodecker,  Z. C. Holden,  S. Houck,  Xunkun Huang,  
 Kerwin Hui,  B. C. Huynh,  K. Ikeda,  M. Ivanov,  Nayanthara K. Jayadev,  
 Hyunjun Ji,  Zuxin Jin,  Hanjie Jiang,  Subrata Jana,  B. Kaduk,  
 S. Kaehler,  R. Kang,  K. Khistyaev,  Jaehoon Kim,  Yongbin Kim,  
 P. Klunzinger,  Z. Koczor-Benda,  Joong Hoon Koh,  D. Kosenkov,  
 Saikiran Kotaru,  L. Koulias,  T. Kowalczyk,  C. M. Krauter,  K. Kue,  
 A. Kunitsa,  T. Kus,  A. Landau,  K. V. Lawler,  D. Lefrancois,  S. Lehtola,  
 Rain Li,  Shaozhi Li,  Tao E. Li,  Yi-Pei Li,  Jiashu Liang,  M. Liebenthal,  
 Hung-Hsuan Lin,  You-Sheng Lin,  Fenglai Liu,  Kuan-Yu Liu,  Xiao Liu,  
 M. Loipersberger,  A. Luenser,  C. Malbon,  Aniket Mandal,  Manisha,  
 A. Manjanath,  P. Manohar,  E. Mansoor,  S. F. Manzer,  Shan-Ping Mao,  
 A. V. Marenich,  T. Markovich,  S. Mason,  F. Matz,  S. A. Maurer,  
 Samuel May,  Alexandra McIsaac,  P. F. McLaughlin,  M. F. S. J. Menger,  
 J.-M. Mewes,  S. A. Mewes,  P. Morgante,  Mohammad Mostafanejad,  
 Madhubani Mukherjee,  J. W. Mullinax,  Quyen Nguyen,  Avik Kumar Ojha,  
 K. J. Oosterbaan,  Eno Paenurk,  Xiaoliang Pan,  G. Paran,  V. Parravicini,  
 Alexander C. Paul,  Suranjan K. Paul,  F. Pavosevic,  Zheng Pei,  S. Prager,  
 E. I. Proynov,  E. Ramos,  B. Rana,  A. E. Rask,  A. Rettig,  R. M. Richard,  
 F. Rob,  E. Rossomme,  T. Scheele,  M. Scheurer,  M. Schneider,  
 P. E. Schneider,  Tim K. Schramm,  N. Sergueev,  S. M. Sharada,  
 Hengyuan Shen,  W. Skomorowski,  D. W. Small,  C. J. Stein,  
 Alistair J. Sterling,  Yingli Su,  Yu-Chuan Su,  E. J. Sundstrom,  
 J. Talbot,  Zhen Tao,  J. Thirman,  Hung-Yi Tsai,  T. Tsuchimochi,  
 N. M. Tubman,  C. Utku,  S. P. Veccham,  O. Vydrov,  Rahel Weiss,  
 J. Wenzel,  Jonathan Wong,  J. Witte,  H. Wu,  Yanze Wu,  A. Yamada,  
 Chou-Hsun Yang,  Kun Yao,  S. Yeganeh,  S. R. Yost,  Qi Yu,  A. Zech,  
 F. Zeller,  Chongxiao Zhao,  Igor Ying Zhang,  Xing Zhang,  Yu Zhang,  
 D. Zuev,  A. Aspuru-Guzik,  A. T. Bell,  N. A. Besley,  K. B. Bravaya,  
 B. R. Brooks,  D. Casanova,  Jeng-Da Chai,  Hsing-Ta Chen,  S. Coriani,  
 C. J. Cramer,  A. E. DePrince, III,  R. A. DiStasio Jr.,  A. Dreuw,  
 B. D. Dunietz,  T. R. Furlani,  W. A. Goddard III,  S. Grimme,  
 S. Hammes-Schiffer,  T. Head-Gordon,  W. J. Hehre,  Chao-Ping Hsu,  
 T.-C. Jagau,  Yousung Jung,  A. Klamt,  Jing Kong,  D. S. Lambrecht,  
 Xiangyuan Li,  WanZhen Liang,  N. J. Mayhall,  C. W. McCurdy,  J. B. Neaton,  
 T. Neudecker,  C. Ochsenfeld,  J. A. Parkhill,  R. Peverati,  
 V. A. Rassolov,  Haisheng Ren,  Yihan Shao,  L. V. Slipchenko,  
 R. P. Steele,  J. E. Subotnik,  A. J. W. Thom,  A. Tkatchenko,  
 D. G. Truhlar,  T. Van Voorhis,  Fan Wang,  T. A. Wesolowski,  K. B. Whaley,  
 H. L. Woodcock III,  P. M. Zimmerman,  S. Faraji,  P. M. W. Gill,  
 M. Head-Gordon,  J. M. Herbert,  A. I. Krylov

 Contributors to earlier versions of Q-Chem not listed above: 
 R. D. Adamson,  B. Austin,  R. Baer,  J. Baker,  G. J. O. Beran,  
 K. Brandhorst,  S. T. Brown,  E. F. C. Byrd,  Arup K. Chakraborty,  
 G. K. L. Chan,  Chun-Min Chang,  Yunqing Chen,  C.-L. Cheng,  
 Siu Hung Chien,  D. M. Chipman,  D. L. Crittenden,  H. Dachsel,  
 R. J. Doerksen,  A. D. Dutoi,  R. G. Edgar,  J. Fosso-Tande,  
 L. Fusti-Molnar,  D. Ghosh,  A. Ghysels,  A. Golubeva-Zadorozhnaya,  
 J. Gonthier,  M. S. Gordon,  S. R. Gwaltney,  G. Hawkins,  J. E. Herr,  
 A. Heyden,  S. Hirata,  E. G. Hohenstein,  G. Kedziora,  F. J. Keil,  
 C. Kelley,  Jihan Kim,  R. A. King,  R. Z. Khaliullin,  P. P. Korambath,  
 W. Kurlancheek,  A. Laurent,  A. M. Lee,  M. S. Lee,  S. V. Levchenko,  
 Ching Yeh Lin,  D. Liotard,  E. Livshits,  R. C. Lochan,  I. Lotan,  
 L. A. Martinez-Martinez,  P. E. Maslen,  N. Nair,  D. P. O'Neill,  
 D. Neuhauser,  E. Neuscamman,  C. M. Oana,  R. Olivares-Amaya,  R. Olson,  
 T. M. Perrine,  B. Peters,  P. A. Pieniazek,  A. Prociuk,  Y. M. Rhee,  
 J. Ritchie,  M. A. Rohrdanz,  E. Rosta,  N. J. Russ,  H. F. Schaefer III,  
 M. W. Schmidt,  N. E. Schultz,  S. Sharma,  N. Shenvi,  C. D. Sherrill,  
 A. C. Simmonett,  A. Sodt,  T. Stein,  D. Stuck,  K. S. Thanthiriwatte,  
 V. Vanovschi,  L. Vogt,  Tao Wang,  A. Warshel,  M. A. Watson,  
 C. F. Williams,  Q. Wu,  X. Xu,  Jun Yang,  W. Zhang,  Yan Zhao

   Please cite Q-Chem as follows:
  "Software for the frontiers of quantum chemistry:
   An overview of developments in the Q-Chem 5 package"
   J. Chem. Phys. 155, 084801 (2021)
   https://doi.org/10.1063/5.0055522 (open access)

 Q-Chem 6.2.0 for Intel X86 EM64T Linux

 Parts of Q-Chem use Armadillo 9.900.5 (Nocturnal Misbehaviour).
 http://arma.sourceforge.net/

 Q-Chem begins on Wed May 29 16:11:29 2024  

 Host: 
0

     Scratch files written to /data/scratch/cf3h_h2o_adiabatic_eda20240529161054//
 Processing $rem in /home/ymao/my_qchem/qchem_ymao_quick_fix/config/preferences:
 Processing $rem in /home/ymao/.qchemrc:
 The previous job contains 2 fragments; simply inherited here

 Checking the input file for inconsistencies... 	...done.

--------------------------------------------------------------
User input:
--------------------------------------------------------------

$molecule
read
$end

$rem
JOBTYPE  FREQ
GEN_SCFMAN  TRUE
METHOD  WB97X-V
BASIS  DEF2-SVPD
UNRESTRICTED  FALSE
MAX_SCF_CYCLES  2000
THRESH  14
SCF_CONVERGENCE  9
MEM_TOTAL  8000
MEM_STATIC  2000
SCF_GUESS  FRAGMO
SYMMETRY  FALSE
SYM_IGNORE  FALSE
SCF_ALGORITHM  DIIS
BASIS_LIN_DEP_THRESH  6
IDERIV  1
XC_GRID  000075000302
NL_GRID  1
FD_MAT_VEC_PROD  FALSE
GEOM_OPT_TOL_GRADIENT  50
GEOM_OPT_TOL_DISPLACEMENT  50
GEOM_OPT_TOL_ENERGY  10
GEOM_OPT_DRIVER  OPTIMIZE
GEOM_OPT_MAX_CYCLES  200
$end

--------------------------------------------------------------
 ----------------------------------------------------------------
             Standard Nuclear Orientation (Angstroms)
    I     Atom           X                Y                Z
 ----------------------------------------------------------------
    1      O       2.7740655993    -0.0207109774    -0.0000000000
    2      H       3.3547092479    -0.0106903781    -0.7677088925
    3      H       3.3547092479    -0.0106903781     0.7677088925
    4      H       0.5950429382    -0.0482938023    -0.0000000000
    5      C      -0.5026441790    -0.0078268704    -0.0000000000
    6      F      -1.0288780882    -1.2422667835    -0.0000000000
    7      F      -0.9567343533     0.6368180362     1.0861611713
    8      F      -0.9567343533     0.6368180362    -1.0861611713
 ----------------------------------------------------------------
 Molecular Point Group                 Cs    NOp =  2
 Largest Abelian Subgroup              Cs    NOp =  2
 Nuclear Repulsion Energy =         189.01021761 hartrees
 There are       22 alpha and       22 beta electrons
 Requested basis set is def2-SVPD
 There are 56 shells and 136 basis functions

 Total QAlloc Memory Limit   8000 MB
 Mega-Array Size      1956 MB
 MEM_STATIC part      2000 MB


                       Distance Matrix (Angstroms)
             O (  1)   H (  2)   H (  3)   H (  4)   C (  5)   F (  6)
   H (  2)  0.962613
   H (  3)  0.962613  1.535418
   H (  4)  2.179197  2.864708  2.864708
   C (  5)  3.276735  3.933009  3.933009  1.098433
   F (  6)  3.994318  4.617575  4.617575  2.015612  1.341925
   F (  7)  3.940934  4.737578  4.371410  2.014234  1.342204  2.171615
   F (  8)  3.940934  4.371410  4.737578  2.014234  1.342204  2.171615
             F (  7)
   F (  8)  2.172322
 
 A cutoff of  1.0D-14 yielded   1534 shell pairs
 There are      9082 function pairs (     10477 Cartesian)
 Smallest overlap matrix eigenvalue = 1.82E-04
 Attempting to make child job directory: /data/scratch/cf3h_h2o_adiabatic_eda20240529161054//Frg1/
 Failed to make child job directory:     /data/scratch/cf3h_h2o_adiabatic_eda20240529161054//Frg1/
 Attempting to make child job directory: /data/scratch/cf3h_h2o_adiabatic_eda20240529161054//Frg2/
 Failed to make child job directory:     /data/scratch/cf3h_h2o_adiabatic_eda20240529161054//Frg2/
 Creating input file /data/scratch/cf3h_h2o_adiabatic_eda20240529161054/Frg1.input
 using default PutDataFrgm: nothing
 calling putenv with: QCSCRATCH=/data/scratch/cf3h_h2o_adiabatic_eda20240529161054/ 
 Spawning Job For Fragment 0
 Done Job For Fragment 0
 calling putenv with: QCSCRATCH=/data/scratch 
 calling putenv with: QCTHREADS=16 
 Creating input file /data/scratch/cf3h_h2o_adiabatic_eda20240529161054/Frg2.input
 using default PutDataFrgm: nothing
 calling putenv with: QCSCRATCH=/data/scratch/cf3h_h2o_adiabatic_eda20240529161054/ 
 Spawning Job For Fragment 1
 Done Job For Fragment 1
 calling putenv with: QCSCRATCH=/data/scratch 
 calling putenv with: QCTHREADS=16 
 Time for running child jobs:  CPU 1.99 s  wall 13.14 s

 -----------------------------------------------------------------------
  General SCF calculation program by
  Eric Jon Sundstrom, Paul Horn, Yuezhi Mao, Dmitri Zuev, Alec White,
  David Stuck, Shaama M.S., Shane Yost, Joonho Lee, David Small,
  Daniel Levine, Susi Lehtola, Hugh Burton, Evgeny Epifanovsky,
  Bang C. Huynh
 -----------------------------------------------------------------------
 Exchange:     0.1670 Hartree-Fock + 1.0000 wB97X-V + LR-HF
 Correlation:  1.0000 wB97X-V
 Using Euler-Maclaurin-Lebedev (75,302) quadrature formula
 Nonlocal Correlation:  VV10 with C = 0.0100 and b = 6.00 and scale = 1.00000
 Grid used for NLC:  SG-1 standard quadrature
 using 16 threads for integral computing
 -------------------------------------------------------
 OpenMP Integral computing Module                
 Release: version 1.0, May 2013, Q-Chem Inc. Pittsburgh 
 -------------------------------------------------------
 A restricted SCF calculation will be
 performed using DIIS
 SCF converges when DIIS error is below 1.0e-09
 ---------------------------------------
  Cycle       Energy         DIIS error
 ---------------------------------------
    1    -414.2488326555      1.28e-03  
    2    -414.2521529321      1.78e-04  
    3    -414.2523119846      7.73e-05  
    4    -414.2523233554      4.31e-05  
    5    -414.2523269546      5.36e-06  
    6    -414.2523270538      1.07e-06  
    7    -414.2523270595      3.87e-07  
    8    -414.2523270599      9.84e-08  
    9    -414.2523270600      5.55e-08  
   10    -414.2523270600      5.43e-09  
   11    -414.2523270600      1.60e-09  
   12    -414.2523270600      1.03e-09  
   13    -414.2523270600      1.29e-10  Convergence criterion met
 ---------------------------------------
 SCF time:   CPU 125.45s  wall 8.00s 
 SCF   energy =  -414.25232706
 Total energy =  -414.25232706
 
 --------------------------------------------------------------
             Orbital Energies (a.u.) and Symmetries
 --------------------------------------------------------------
 
 Alpha MOs, Restricted
 -- Occupied --                  
-24.804 -24.804 -24.804 -19.262 -10.526  -1.428  -1.335  -1.335
  1 A'    1 A"    2 A'    3 A'    4 A'    5 A'    2 A"    6 A'                 
 -1.157  -0.830  -0.720  -0.706  -0.705  -0.676  -0.583  -0.583
  7 A'    8 A'    9 A'    3 A"   10 A'    4 A"    5 A"   11 A'                 
 -0.545  -0.544  -0.543  -0.522  -0.488  -0.458
  6 A"   12 A'   13 A'    7 A"   14 A'   15 A'                                 
 -- Virtual --                   
  0.056   0.112   0.113   0.136   0.155   0.158   0.182   0.208
 16 A'    8 A"   17 A'   18 A'    9 A"   19 A'   20 A'   10 A"                 
  0.218   0.224   0.226   0.248   0.258   0.265   0.275   0.283
 21 A'   11 A"   22 A'   23 A'   24 A'   12 A"   25 A'   26 A'                 
  0.291   0.312   0.319   0.329   0.338   0.375   0.382   0.411
 13 A"   14 A"   27 A'   15 A"   28 A'   29 A'   30 A'   16 A"                 
  0.435   0.437   0.460   0.473   0.484   0.487   0.497   0.497
 17 A"   31 A'   32 A'   33 A'   18 A"   34 A'   19 A"   35 A'                 
  0.503   0.525   0.618   0.620   0.634   0.653   0.668   0.683
 20 A"   36 A'   37 A'   21 A"   38 A'   39 A'   22 A"   40 A'                 
  0.688   0.711   0.729   0.786   0.787   0.805   0.818   0.822
 23 A"   41 A'   42 A'   43 A'   24 A"   44 A'   25 A"   45 A'                 
  0.850   0.871   0.874   0.910   0.910   0.923   0.950   0.991
 26 A"   27 A"   46 A'   47 A'   28 A"   48 A'   29 A"   49 A'                 
  1.032   1.051   1.117   1.118   1.151   1.221   1.251   1.301
 30 A"   50 A'   31 A"   51 A'   52 A'   53 A'   32 A"   54 A'                 
  1.340   1.588   1.620   1.634   1.751   1.785   1.807   1.834
 55 A'   56 A'   33 A"   57 A'   34 A"   35 A"   58 A'   59 A'                 
  1.839   1.840   1.851   1.868   1.905   1.961   2.054   2.078
 60 A'   36 A"   37 A"   38 A"   61 A'   62 A'   39 A"   63 A'                 
  2.139   2.173   2.173   2.214   2.214   2.268   2.316   2.327
 64 A'   40 A"   65 A'   66 A'   41 A"   67 A'   42 A"   68 A'                 
  2.382   2.416   2.423   2.432   2.523   3.023   3.099   3.138
 43 A"   69 A'   44 A"   70 A'   71 A'   72 A'   73 A'   45 A"                 
  3.313   3.357   3.420   3.432   3.433   3.448   3.454   3.498
 74 A'   46 A"   47 A"   75 A'   48 A"   76 A'   49 A"   77 A'                 
  3.504   3.524   3.620   3.747   3.789   3.791   3.870   4.070
 50 A"   78 A'   79 A'   80 A'   81 A'   51 A"   82 A'   52 A"                 
  4.070   4.119
 83 A'   53 A"                                                                 
 
 Beta MOs, Restricted
 -- Occupied --                  
-24.804 -24.804 -24.804 -19.262 -10.526  -1.428  -1.335  -1.335
  1 A'    1 A"    2 A'    3 A'    4 A'    5 A'    2 A"    6 A'                 
 -1.157  -0.830  -0.720  -0.706  -0.705  -0.676  -0.583  -0.583
  7 A'    8 A'    9 A'    3 A"   10 A'    4 A"    5 A"   11 A'                 
 -0.545  -0.544  -0.543  -0.522  -0.488  -0.458
  6 A"   12 A'   13 A'    7 A"   14 A'   15 A'                                 
 -- Virtual --                   
  0.056   0.112   0.113   0.136   0.155   0.158   0.182   0.208
 16 A'    8 A"   17 A'   18 A'    9 A"   19 A'   20 A'   10 A"                 
  0.218   0.224   0.226   0.248   0.258   0.265   0.275   0.283
 21 A'   11 A"   22 A'   23 A'   24 A'   12 A"   25 A'   26 A'                 
  0.291   0.312   0.319   0.329   0.338   0.375   0.382   0.411
 13 A"   14 A"   27 A'   15 A"   28 A'   29 A'   30 A'   16 A"                 
  0.435   0.437   0.460   0.473   0.484   0.487   0.497   0.497
 17 A"   31 A'   32 A'   33 A'   18 A"   34 A'   19 A"   35 A'                 
  0.503   0.525   0.618   0.620   0.634   0.653   0.668   0.683
 20 A"   36 A'   37 A'   21 A"   38 A'   39 A'   22 A"   40 A'                 
  0.688   0.711   0.729   0.786   0.787   0.805   0.818   0.822
 23 A"   41 A'   42 A'   43 A'   24 A"   44 A'   25 A"   45 A'                 
  0.850   0.871   0.874   0.910   0.910   0.923   0.950   0.991
 26 A"   27 A"   46 A'   47 A'   28 A"   48 A'   29 A"   49 A'                 
  1.032   1.051   1.117   1.118   1.151   1.221   1.251   1.301
 30 A"   50 A'   31 A"   51 A'   52 A'   53 A'   32 A"   54 A'                 
  1.340   1.588   1.620   1.634   1.751   1.785   1.807   1.834
 55 A'   56 A'   33 A"   57 A'   34 A"   35 A"   58 A'   59 A'                 
  1.839   1.840   1.851   1.868   1.905   1.961   2.054   2.078
 60 A'   36 A"   37 A"   38 A"   61 A'   62 A'   39 A"   63 A'                 
  2.139   2.173   2.173   2.214   2.214   2.268   2.316   2.327
 64 A'   40 A"   65 A'   66 A'   41 A"   67 A'   42 A"   68 A'                 
  2.382   2.416   2.423   2.432   2.523   3.023   3.099   3.138
 43 A"   69 A'   44 A"   70 A'   71 A'   72 A'   73 A'   45 A"                 
  3.313   3.357   3.420   3.432   3.433   3.448   3.454   3.498
 74 A'   46 A"   47 A"   75 A'   48 A"   76 A'   49 A"   77 A'                 
  3.504   3.524   3.620   3.747   3.789   3.791   3.870   4.070
 50 A"   78 A'   79 A'   80 A'   81 A'   51 A"   82 A'   52 A"                 
  4.070   4.119
 83 A'   53 A"                                                                 
 --------------------------------------------------------------
 
          Ground-State Mulliken Net Atomic Charges

     Atom                 Charge (a.u.)
  ----------------------------------------
      1 O                    -0.235924
      2 H                     0.131210
      3 H                     0.131210
      4 H                    -0.648710
      5 C                     1.873682
      6 F                    -0.414894
      7 F                    -0.418288
      8 F                    -0.418288
  ----------------------------------------
  Sum of atomic charges =     0.000000

 -----------------------------------------------------------------
                    Cartesian Multipole Moments
 -----------------------------------------------------------------
    Charge (ESU x 10^10)
                 0.0000
    Dipole Moment (Debye)
         X       4.1798      Y      -0.0349      Z       0.0000
       Tot       4.1800
    Quadrupole Moments (Debye-Ang)
        XX     -16.2148     XY       0.0009     YY     -30.5506
        XZ      -0.0000     YZ      -0.0000     ZZ     -27.1920
    Octopole Moments (Debye-Ang^2)
       XXX      50.5934    XXY       0.3500    XYY      -3.1531
       YYY       1.3698    XXZ      -0.0000    XYZ      -0.0000
       YYZ       0.0000    XZZ       7.6680    YZZ      -1.2361
       ZZZ       0.0000
    Hexadecapole Moments (Debye-Ang^3)
      XXXX    -229.5571   XXXY       0.4922   XXYY    -100.1189
      XYYY      -0.2380   YYYY     -95.2610   XXXZ      -0.0000
      XXYZ      -0.0000   XYYZ      -0.0000   YYYZ       0.0000
      XXZZ     -64.8380   XYZZ       0.5899   YYZZ     -31.9032
      XZZZ      -0.0000   YZZZ      -0.0000   ZZZZ     -94.3513
 -----------------------------------------------------------------
 Calculating analytic gradient of the SCF energy
 Gradient of SCF Energy
            1           2           3           4           5           6
    1  -0.0000064   0.0000028   0.0000028   0.0000001  -0.0000032   0.0000030
    2   0.0000072  -0.0000013  -0.0000013  -0.0000259   0.0000152   0.0000009
    3  -0.0000000   0.0000003  -0.0000003  -0.0000000   0.0000000  -0.0000000
            7           8
    1   0.0000005   0.0000005
    2   0.0000026   0.0000026
    3   0.0000090  -0.0000090
 Max gradient component =       2.594E-05
 RMS gradient           =       7.111E-06
 Gradient time:  CPU 26.14 s  wall 1.64 s


 ##########################################
 # Starting finite difference calculation #
 ##########################################

 Finite diff step size:  1.88973e-03 a.u.
 ----------------------------------------------------------------
             Standard Nuclear Orientation (Angstroms)
    I     Atom           X                Y                Z
 ----------------------------------------------------------------
    1      O       2.7750655993    -0.0207109774    -0.0000000000
    2      H       3.3547092479    -0.0106903781    -0.7677088925
    3      H       3.3547092479    -0.0106903781     0.7677088925
    4      H       0.5950429382    -0.0482938023    -0.0000000000
    5      C      -0.5026441790    -0.0078268704    -0.0000000000
    6      F      -1.0288780882    -1.2422667835    -0.0000000000
    7      F      -0.9567343533     0.6368180362     1.0861611713
    8      F      -0.9567343533     0.6368180362    -1.0861611713
 ----------------------------------------------------------------
 Nuclear Repulsion Energy =         189.00555677 hartrees
 There are       22 alpha and       22 beta electrons

                       Distance Matrix (Angstroms)
             O (  1)   H (  2)   H (  3)   H (  4)   C (  5)   F (  6)
   H (  2)  0.962010
   H (  3)  0.962010  1.535418
   H (  4)  2.180197  2.864708  2.864708
   C (  5)  3.277735  3.933009  3.933009  1.098433
   F (  6)  3.995270  4.617575  4.617575  2.015612  1.341925
   F (  7)  3.941880  4.737578  4.371410  2.014234  1.342204  2.171615
   F (  8)  3.941880  4.371410  4.737578  2.014234  1.342204  2.171615
             F (  7)
   F (  8)  2.172322
 
 Requested basis set is def2-SVPD
 There are 56 shells and 136 basis functions
 A cutoff of  1.0D-14 yielded   1534 shell pairs
 There are      9082 function pairs (     10477 Cartesian)
 Smallest overlap matrix eigenvalue = 1.82E-04
 Read the previous MOs as SCF guess

 -----------------------------------------------------------------------
  General SCF calculation program by
  Eric Jon Sundstrom, Paul Horn, Yuezhi Mao, Dmitri Zuev, Alec White,
  David Stuck, Shaama M.S., Shane Yost, Joonho Lee, David Small,
  Daniel Levine, Susi Lehtola, Hugh Burton, Evgeny Epifanovsky,
  Bang C. Huynh
 -----------------------------------------------------------------------
 Exchange:     0.1670 Hartree-Fock + 1.0000 wB97X-V + LR-HF
 Correlation:  1.0000 wB97X-V
 Using Euler-Maclaurin-Lebedev (75,302) quadrature formula
 Nonlocal Correlation:  VV10 with C = 0.0100 and b = 6.00 and scale = 1.00000
 Grid used for NLC:  SG-1 standard quadrature
 A restricted SCF calculation will be
 performed using DIIS
 SCF converges when DIIS error is below 1.0e-09
 ---------------------------------------
  Cycle       Energy         DIIS error
 ---------------------------------------
    1    -414.2523258001      1.50e-05  
    2    -414.2523262107      3.39e-06  
    3    -414.2523262270      2.58e-06  
    4    -414.2523262383      4.57e-07  
    5    -414.2523262389      7.59e-08  
    6    -414.2523262389      1.49e-08  
    7    -414.2523262389      8.22e-09  
    8    -414.2523262389      1.55e-09  
    9    -414.2523262389      4.16e-10  Convergence criterion met
 ---------------------------------------
 SCF time:   CPU 83.12s  wall 5.00s 
 SCF   energy =  -414.25232624
 Total energy =  -414.25232624
 
 --------------------------------------------------------------
 
                    Orbital Energies (a.u.)
 --------------------------------------------------------------
 
 Alpha MOs
 -- Occupied --
-24.8040 -24.8040 -24.8038 -19.2616 -10.5257  -1.4279  -1.3349  -1.3348
 -1.1576  -0.8298  -0.7199  -0.7055  -0.7054  -0.6763  -0.5829  -0.5829
 -0.5446  -0.5444  -0.5433  -0.5225  -0.4883  -0.4578
 -- Virtual --
  0.0559   0.1116   0.1126   0.1362   0.1555   0.1575   0.1824   0.2083
  0.2176   0.2242   0.2258   0.2476   0.2580   0.2645   0.2751   0.2832
  0.2910   0.3121   0.3187   0.3289   0.3381   0.3754   0.3823   0.4108
  0.4347   0.4372   0.4604   0.4730   0.4845   0.4867   0.4972   0.4974
  0.5035   0.5251   0.6182   0.6202   0.6338   0.6532   0.6684   0.6827
  0.6882   0.7111   0.7290   0.7860   0.7870   0.8053   0.8178   0.8219
  0.8496   0.8711   0.8741   0.9093   0.9104   0.9233   0.9502   0.9913
  1.0317   1.0517   1.1173   1.1176   1.1514   1.2214   1.2504   1.3008
  1.3405   1.5881   1.6201   1.6335   1.7515   1.7851   1.8065   1.8338
  1.8386   1.8397   1.8512   1.8680   1.9045   1.9606   2.0540   2.0780
  2.1389   2.1727   2.1733   2.2141   2.2142   2.2679   2.3165   2.3274
  2.3834   2.4157   2.4229   2.4320   2.5236   3.0232   3.0992   3.1391
  3.3140   3.3568   3.4199   3.4323   3.4332   3.4484   3.4537   3.4980
  3.5044   3.5241   3.6199   3.7480   3.7892   3.7909   3.8705   4.0698
  4.0702   4.1200
 --------------------------------------------------------------
 
          Ground-State Mulliken Net Atomic Charges

     Atom                 Charge (a.u.)
  ----------------------------------------
      1 O                    -0.234931
      2 H                     0.130689
      3 H                     0.130689
      4 H                    -0.648446
      5 C                     1.873380
      6 F                    -0.414864
      7 F                    -0.418259
      8 F                    -0.418259
  ----------------------------------------
  Sum of atomic charges =     0.000000

 -----------------------------------------------------------------
                    Cartesian Multipole Moments
 -----------------------------------------------------------------
    Charge (ESU x 10^10)
                 0.0000
    Dipole Moment (Debye)
         X       4.1773      Y      -0.0349      Z      -0.0000
       Tot       4.1774
    Quadrupole Moments (Debye-Ang)
        XX     -16.2264     XY       0.0010     YY     -30.5492
        XZ      -0.0000     YZ      -0.0000     ZZ     -27.1894
    Octopole Moments (Debye-Ang^2)
       XXX      50.5288    XXY       0.3504    XYY      -3.1559
       YYY       1.3697    XXZ      -0.0000    XYZ      -0.0000
       YYZ      -0.0000    XZZ       7.6694    YZZ      -1.2360
       ZZZ      -0.0000
    Hexadecapole Moments (Debye-Ang^3)
      XXXX    -229.9092   XXXY       0.4942   XXYY    -100.1411
      XYYY      -0.2376   YYYY     -95.2586   XXXZ      -0.0000
      XXYZ      -0.0000   XYYZ      -0.0000   YYYZ      -0.0000
      XXZZ     -64.8453   XYZZ       0.5897   YYZZ     -31.9018
      XZZZ      -0.0000   YZZZ      -0.0000   ZZZZ     -94.3439
 -----------------------------------------------------------------
 Calculating analytic gradient of the SCF energy
 Gradient of SCF Energy
            1           2           3           4           5           6
    1   0.0008755  -0.0004316  -0.0004316  -0.0000095   0.0000035  -0.0000007
    2   0.0000221  -0.0000087  -0.0000087  -0.0000258   0.0000146  -0.0000019
    3  -0.0000000   0.0004002  -0.0004002   0.0000000   0.0000000  -0.0000000
            7           8
    1  -0.0000028  -0.0000028
    2   0.0000042   0.0000042
    3   0.0000115  -0.0000115
 Max gradient component =       8.755E-04
 RMS gradient           =       2.468E-04
 Gradient time:  CPU 29.13 s  wall 1.82 s
 ----------------------------------------------------------------
             Standard Nuclear Orientation (Angstroms)
    I     Atom           X                Y                Z
 ----------------------------------------------------------------
    1      O       2.7730655993    -0.0207109774    -0.0000000000
    2      H       3.3547092479    -0.0106903781    -0.7677088925
    3      H       3.3547092479    -0.0106903781     0.7677088925
    4      H       0.5950429382    -0.0482938023    -0.0000000000
    5      C      -0.5026441790    -0.0078268704    -0.0000000000
    6      F      -1.0288780882    -1.2422667835    -0.0000000000
    7      F      -0.9567343533     0.6368180362     1.0861611713
    8      F      -0.9567343533     0.6368180362    -1.0861611713
 ----------------------------------------------------------------
 Nuclear Repulsion Energy =         189.01488471 hartrees
 There are       22 alpha and       22 beta electrons

                       Distance Matrix (Angstroms)
             O (  1)   H (  2)   H (  3)   H (  4)   C (  5)   F (  6)
   H (  2)  0.963217
   H (  3)  0.963217  1.535418
   H (  4)  2.178197  2.864708  2.864708
   C (  5)  3.275735  3.933009  3.933009  1.098433
   F (  6)  3.993366  4.617575  4.617575  2.015612  1.341925
   F (  7)  3.939987  4.737578  4.371410  2.014234  1.342204  2.171615
   F (  8)  3.939987  4.371410  4.737578  2.014234  1.342204  2.171615
             F (  7)
   F (  8)  2.172322
 
 Requested basis set is def2-SVPD
 There are 56 shells and 136 basis functions
 A cutoff of  1.0D-14 yielded   1534 shell pairs
 There are      9082 function pairs (     10477 Cartesian)
 Smallest overlap matrix eigenvalue = 1.82E-04
 Read the previous MOs as SCF guess

 -----------------------------------------------------------------------
  General SCF calculation program by
  Eric Jon Sundstrom, Paul Horn, Yuezhi Mao, Dmitri Zuev, Alec White,
  David Stuck, Shaama M.S., Shane Yost, Joonho Lee, David Small,
  Daniel Levine, Susi Lehtola, Hugh Burton, Evgeny Epifanovsky,
  Bang C. Huynh
 -----------------------------------------------------------------------
 Exchange:     0.1670 Hartree-Fock + 1.0000 wB97X-V + LR-HF
 Correlation:  1.0000 wB97X-V
 Using Euler-Maclaurin-Lebedev (75,302) quadrature formula
 Nonlocal Correlation:  VV10 with C = 0.0100 and b = 6.00 and scale = 1.00000
 Grid used for NLC:  SG-1 standard quadrature
 A restricted SCF calculation will be
 performed using DIIS
 SCF converges when DIIS error is below 1.0e-09
 ---------------------------------------
  Cycle       Energy         DIIS error
 ---------------------------------------
    1    -414.2523244588      3.00e-05  
    2    -414.2523261027      6.76e-06  
    3    -414.2523261677      5.16e-06  
    4    -414.2523262130      9.15e-07  
    5    -414.2523262153      1.52e-07  
    6    -414.2523262155      2.99e-08  
    7    -414.2523262155      1.66e-08  
    8    -414.2523262155      3.10e-09  
    9    -414.2523262155      8.30e-10  Convergence criterion met
 ---------------------------------------
 SCF time:   CPU 86.34s  wall 6.00s 
 SCF   energy =  -414.25232622
 Total energy =  -414.25232622
 
 --------------------------------------------------------------
 
                    Orbital Energies (a.u.)
 --------------------------------------------------------------
 
 Alpha MOs
 -- Occupied --
-24.8040 -24.8040 -24.8038 -19.2619 -10.5257  -1.4279  -1.3349  -1.3348
 -1.1572  -0.8297  -0.7199  -0.7055  -0.7054  -0.6755  -0.5829  -0.5829
 -0.5445  -0.5443  -0.5435  -0.5225  -0.4883  -0.4577
 -- Virtual --
  0.0558   0.1116   0.1126   0.1363   0.1554   0.1576   0.1824   0.2082
  0.2176   0.2242   0.2259   0.2476   0.2581   0.2645   0.2751   0.2830
  0.2910   0.3120   0.3187   0.3289   0.3382   0.3752   0.3822   0.4108
  0.4348   0.4373   0.4604   0.4729   0.4842   0.4867   0.4971   0.4975
  0.5035   0.5251   0.6182   0.6203   0.6339   0.6531   0.6684   0.6826
  0.6881   0.7114   0.7290   0.7860   0.7870   0.8056   0.8179   0.8220
  0.8497   0.8712   0.8740   0.9098   0.9104   0.9235   0.9502   0.9907
  1.0317   1.0511   1.1174   1.1176   1.1514   1.2214   1.2507   1.3009
  1.3404   1.5879   1.6201   1.6335   1.7511   1.7851   1.8066   1.8339
  1.8386   1.8397   1.8513   1.8676   1.9046   1.9607   2.0544   2.0784
  2.1390   2.1727   2.1733   2.2141   2.2143   2.2686   2.3160   2.3275
  2.3811   2.4157   2.4225   2.4317   2.5219   3.0235   3.0991   3.1376
  3.3128   3.3569   3.4199   3.4323   3.4333   3.4485   3.4538   3.4980
  3.5045   3.5242   3.6199   3.7451   3.7893   3.7910   3.8705   4.0699
  4.0702   4.1186
 --------------------------------------------------------------
 
          Ground-State Mulliken Net Atomic Charges

     Atom                 Charge (a.u.)
  ----------------------------------------
      1 O                    -0.236915
      2 H                     0.131731
      3 H                     0.131731
      4 H                    -0.648974
      5 C                     1.873986
      6 F                    -0.414924
      7 F                    -0.418318
      8 F                    -0.418318
  ----------------------------------------
  Sum of atomic charges =     0.000000

 -----------------------------------------------------------------
                    Cartesian Multipole Moments
 -----------------------------------------------------------------
    Charge (ESU x 10^10)
                -0.0000
    Dipole Moment (Debye)
         X       4.1824      Y      -0.0349      Z      -0.0000
       Tot       4.1825
    Quadrupole Moments (Debye-Ang)
        XX     -16.2032     XY       0.0008     YY     -30.5520
        XZ       0.0000     YZ      -0.0000     ZZ     -27.1945
    Octopole Moments (Debye-Ang^2)
       XXX      50.6580    XXY       0.3496    XYY      -3.1503
       YYY       1.3700    XXZ       0.0000    XYZ       0.0000
       YYZ      -0.0000    XZZ       7.6666    YZZ      -1.2362
       ZZZ       0.0000
    Hexadecapole Moments (Debye-Ang^3)
      XXXX    -229.2054   XXXY       0.4903   XXYY    -100.0967
      XYYY      -0.2384   YYYY     -95.2633   XXXZ       0.0000
      XXYZ      -0.0000   XYYZ       0.0000   YYYZ       0.0000
      XXZZ     -64.8306   XYZZ       0.5900   YYZZ     -31.9047
      XZZZ      -0.0000   YZZZ       0.0000   ZZZZ     -94.3586
 -----------------------------------------------------------------
 Calculating analytic gradient of the SCF energy
 Gradient of SCF Energy
            1           2           3           4           5           6
    1  -0.0008872   0.0004366   0.0004366   0.0000097  -0.0000099   0.0000066
    2  -0.0000076   0.0000061   0.0000061  -0.0000261   0.0000158   0.0000037
    3   0.0000000  -0.0003976   0.0003976  -0.0000000   0.0000000  -0.0000000
            7           8
    1   0.0000038   0.0000038
    2   0.0000010   0.0000010
    3   0.0000066  -0.0000066
 Max gradient component =       8.872E-04
 RMS gradient           =       2.488E-04
 Gradient time:  CPU 27.42 s  wall 1.72 s
 ----------------------------------------------------------------
             Standard Nuclear Orientation (Angstroms)
    I     Atom           X                Y                Z
 ----------------------------------------------------------------
    1      O       2.7740655993    -0.0197109774    -0.0000000000
    2      H       3.3547092479    -0.0106903781    -0.7677088925
    3      H       3.3547092479    -0.0106903781     0.7677088925
    4      H       0.5950429382    -0.0482938023    -0.0000000000
    5      C      -0.5026441790    -0.0078268704    -0.0000000000
    6      F      -1.0288780882    -1.2422667835    -0.0000000000
    7      F      -0.9567343533     0.6368180362     1.0861611713
    8      F      -0.9567343533     0.6368180362    -1.0861611713
 ----------------------------------------------------------------
 Nuclear Repulsion Energy =         189.01039294 hartrees
 There are       22 alpha and       22 beta electrons

                       Distance Matrix (Angstroms)
             O (  1)   H (  2)   H (  3)   H (  4)   C (  5)   F (  6)
   H (  2)  0.962603
   H (  3)  0.962603  1.535418
   H (  4)  2.179210  2.864708  2.864708
   C (  5)  3.276731  3.933009  3.933009  1.098433
   F (  6)  3.994624  4.617575  4.617575  2.015612  1.341925
   F (  7)  3.940767  4.737578  4.371410  2.014234  1.342204  2.171615
   F (  8)  3.940767  4.371410  4.737578  2.014234  1.342204  2.171615
             F (  7)
   F (  8)  2.172322
 
 Requested basis set is def2-SVPD
 There are 56 shells and 136 basis functions
 A cutoff of  1.0D-14 yielded   1534 shell pairs
 There are      9082 function pairs (     10477 Cartesian)
 Smallest overlap matrix eigenvalue = 1.82E-04
 Read the previous MOs as SCF guess

 -----------------------------------------------------------------------
  General SCF calculation program by
  Eric Jon Sundstrom, Paul Horn, Yuezhi Mao, Dmitri Zuev, Alec White,
  David Stuck, Shaama M.S., Shane Yost, Joonho Lee, David Small,
  Daniel Levine, Susi Lehtola, Hugh Burton, Evgeny Epifanovsky,
  Bang C. Huynh
 -----------------------------------------------------------------------
 Exchange:     0.1670 Hartree-Fock + 1.0000 wB97X-V + LR-HF
 Correlation:  1.0000 wB97X-V
 Using Euler-Maclaurin-Lebedev (75,302) quadrature formula
 Nonlocal Correlation:  VV10 with C = 0.0100 and b = 6.00 and scale = 1.00000
[...]
     7    2.125794459224299e-02   9.957160812523918e-04  -1.308407655841122e-02
     8    2.125794458860046e-02   9.957160960575107e-04   1.308407654830614e-02

Order 1, Length 24
    Atom      X          Y          Z
     1    0.000000000000000e+00   0.000000000000000e+00  -7.916944599891361e-04
     2    4.630766667000756e-04   1.112914432245770e-05   6.778234223955395e-05
     3   -4.630766667000756e-04  -1.112914432245770e-05   6.778234223955395e-05
     4    0.000000000000000e+00   0.000000000000000e+00   6.633597696230724e-02
     5    0.000000000000000e+00   0.000000000000000e+00  -4.953870824796816e-02
     6    0.000000000000000e+00   0.000000000000000e+00   9.416013156076750e-03
     7    3.580989235806159e-02  -1.423811821763776e-02  -1.277857111790636e-02
     8   -3.580989235806159e-02   1.423811821763776e-02  -1.277857111790636e-02


     5 Order 1, Length 24
    Atom      X          Y          Z
     1    3.383489860108747e-03  -3.679288785606418e-05   0.000000000000000e+00
     2    2.675538949912339e-04   2.432761355570316e-05   2.806235535675628e-04
     3    2.675538949031082e-04   2.432761354652340e-05  -2.806235521575515e-04
     4   -3.440087759268649e-01   1.138955535753830e-02   0.000000000000000e+00
     5    7.715913447763365e-01  -1.061234233142829e-02   0.000000000000000e+00
     6   -1.516833886977172e-01  -1.060991169007415e-01   0.000000000000000e+00
     7   -1.399089470815303e-01   5.265500581000509e-02   8.608082874149642e-02
     8   -1.399089470834103e-01   5.265500582011017e-02  -8.608082875395152e-02

Order 1, Length 24
    Atom      X          Y          Z
     1   -1.251807360507294e-04  -1.778532652932003e-03   0.000000000000000e+00
     2   -1.097291267800882e-04   6.500956004962794e-04  -6.610859048489644e-05
     3   -1.097291293063585e-04   6.500956001015497e-04   6.610858813487755e-05
     4    1.174372101233371e-02  -4.979830488514721e-02   0.000000000000000e+00
     5   -1.061234233142829e-02   5.082819412109061e-01   0.000000000000000e+00
     6   -8.986310701180444e-02  -2.254795782246467e-01   0.000000000000000e+00
     7    4.453818531420193e-02  -1.162628760625198e-01  -7.276553965551034e-02
     8    4.453818531290941e-02  -1.162628760613448e-01   7.276553966256040e-02

Order 1, Length 24
    Atom      X          Y          Z
     1    0.000000000000000e+00   0.000000000000000e+00  -1.683523014580920e-03
     2    6.382110353733467e-04  -1.121592897033933e-04   5.506506191026842e-04
     3   -6.382110353733467e-04   1.121592897033933e-04   5.506506191026842e-04
     4    0.000000000000000e+00   0.000000000000000e+00  -4.953870824796816e-02
     5    0.000000000000000e+00   0.000000000000000e+00   5.077972421781962e-01
     6    0.000000000000000e+00   0.000000000000000e+00  -7.238069931211061e-02
     7    7.215563796289218e-02  -7.227885162256709e-02  -1.926478321592580e-01
     8   -7.215563796289218e-02   7.227885162256709e-02  -1.926478321592580e-01


     6 Order 1, Length 24
    Atom      X          Y          Z
     1   -9.949354607151142e-04   3.440977299396986e-04   0.000000000000000e+00
     2   -8.746171032716603e-05  -7.034181746218695e-05  -9.024810044090564e-05
     3   -8.746170559775302e-05  -7.034181740160053e-05   9.024810326092831e-05
     4   -7.081026601226313e-03  -4.234099929828550e-02   0.000000000000000e+00
     5   -1.516833886977172e-01  -8.986310701180444e-02   0.000000000000000e+00
     6    1.159251510436411e-01   1.223028954143074e-01   0.000000000000000e+00
     7    2.200458321607843e-02   4.848898629113864e-03  -5.657367834999906e-03
     8    2.200458321878095e-02   4.848898619713788e-03   5.657367836174916e-03

Order 1, Length 24
    Atom      X          Y          Z
     1   -7.445785716205037e-04   9.588800914978267e-04   0.000000000000000e+00
     2   -7.155633048109054e-05  -2.970567053900738e-04  -3.983172820978684e-05
     3   -7.155632889482779e-05  -2.970567054800355e-04   3.983173149981329e-05
     4   -7.849064096871097e-03  -1.808651685303746e-02   0.000000000000000e+00
     5   -1.060991169007415e-01  -2.254795782246467e-01   0.000000000000000e+00
     6    1.223028954143074e-01   3.610340153313837e-01   0.000000000000000e+00
     7   -3.733489626047580e-03  -5.891634452992754e-02  -3.978481446393126e-02
     8   -3.733489633685141e-03  -5.891634452170248e-02   3.978481444795114e-02

Order 1, Length 24
    Atom      X          Y          Z
     1    0.000000000000000e+00   0.000000000000000e+00   2.289636080449495e-04
     2   -8.098306320258376e-05  -1.253396020864515e-05  -7.890461590981640e-05
     3    8.098306320258376e-05   1.253396020864515e-05  -7.890461590981640e-05
     4    0.000000000000000e+00   0.000000000000000e+00   9.416013156076750e-03
     5    0.000000000000000e+00   0.000000000000000e+00  -7.238069931211061e-02
     6    0.000000000000000e+00   0.000000000000000e+00   7.757493772318014e-02
     7   -1.098006269570788e-02  -4.874801797627234e-02  -7.340698899305156e-03
     8    1.098006269570788e-02   4.874801797627234e-02  -7.340698899305156e-03


     7 Order 1, Length 24
    Atom      X          Y          Z
     1   -8.847955049904758e-04  -1.549010918809422e-04  -3.932320985543481e-04
     2    4.075954028582511e-05   2.422780449505498e-05  -1.351037565602930e-05
     3   -2.014651043702197e-04   1.578631339770358e-05   1.515249917564452e-04
     4   -4.240965512811709e-03   2.125794459224299e-02   3.580989235806159e-02
     5   -1.399089470815303e-01   4.453818531420193e-02   7.215563796289218e-02
     6    2.200458321607843e-02  -3.733489626047580e-03  -1.098006269570788e-02
     7    1.019706773260926e-01  -5.426880654129211e-02  -9.195347573204482e-02
     8    2.122019107954418e-02  -7.678934208508939e-03  -4.776771147837486e-03

Order 1, Length 24
    Atom      X          Y          Z
     1    3.864020027404714e-04   4.587139331003246e-04   4.123482328124635e-04
     2   -5.946678808696004e-05  -1.112470431009129e-04  -4.920901847501145e-05
     3    2.206454829735427e-04  -1.940206347529417e-04  -1.439181259432751e-04
     4    3.896231258927985e-03   9.957160812523918e-04  -1.423811821763776e-02
     5    5.265500581000509e-02  -1.162628760625198e-01  -7.227885162256709e-02
     6    4.848898629113864e-03  -5.891634452992754e-02  -4.874801797627234e-02
     7   -5.426880654129211e-02   1.550580622065839e-01   1.302635777664108e-01
     8   -7.678934208508939e-03   1.897201050048817e-02   4.782196265861483e-03

Order 1, Length 24
    Atom      X          Y          Z
     1    6.195007797777782e-04   3.275757016106501e-04   9.035027268148800e-04
     2   -1.885084360536043e-04  -3.220273602871644e-05  -1.508234745736116e-04
     3    4.458126994308207e-04  -1.423056344412664e-04  -3.411341104778758e-04
     4    5.876400737534241e-03  -1.308407655841122e-02  -1.277857111790636e-02
     5    8.608082874149642e-02  -7.276553965551034e-02  -1.926478321592580e-01
     6   -5.657367834999906e-03  -3.978481446393126e-02  -7.340698899305156e-03
     7   -9.195347573204482e-02   1.302635777664108e-01   2.967770731199195e-01
     8    4.776771147837486e-03  -4.782196265861483e-03  -8.442150111919190e-02


     8 Order 1, Length 24
    Atom      X          Y          Z
     1   -8.847955120405324e-04  -1.549011008110140e-04   3.932320985543481e-04
     2   -2.014651043702197e-04   1.578631339770358e-05  -1.515249917564452e-04
     3    4.075954028582511e-05   2.422780449505498e-05   1.351037565602930e-05
     4   -4.240965511166696e-03   2.125794458860046e-02  -3.580989235806159e-02
     5   -1.399089470834103e-01   4.453818531290941e-02  -7.215563796289218e-02
     6    2.200458321878095e-02  -3.733489633685141e-03   1.098006269570788e-02
     7    2.122019107954418e-02  -7.678934208508939e-03   4.776771147837486e-03
     8    1.019706773260926e-01  -5.426880654129211e-02   9.195347573204482e-02

Order 1, Length 24
    Atom      X          Y          Z
     1    3.864020062654997e-04   4.587139460254285e-04  -4.123482328124635e-04
     2    2.206454829735427e-04  -1.940206347529417e-04   1.439181259432751e-04
     3   -5.946678808696004e-05  -1.112470431009129e-04   4.920901847501145e-05
     4    3.896231252112930e-03   9.957160960575107e-04   1.423811821763776e-02
     5    5.265500582011017e-02  -1.162628760613448e-01   7.227885162256709e-02
     6    4.848898619713788e-03  -5.891634452170248e-02   4.874801797627234e-02
     7   -7.678934208508939e-03   1.897201050048817e-02  -4.782196265861483e-03
     8   -5.426880654129211e-02   1.550580622065839e-01  -1.302635777664108e-01

Order 1, Length 24
    Atom      X          Y          Z
     1   -6.195007851828216e-04  -3.275757138307484e-04   9.035027268148800e-04
     2   -4.458126994308207e-04   1.423056344412664e-04  -3.411341104778758e-04
     3    1.885084360536043e-04   3.220273602871644e-05  -1.508234745736116e-04
     4   -5.876400730954187e-03   1.308407654830614e-02  -1.277857111790636e-02
     5   -8.608082875395152e-02   7.276553966256040e-02  -1.926478321592580e-01
     6    5.657367836174916e-03   3.978481444795114e-02  -7.340698899305156e-03
     7   -4.776771147837486e-03   4.782196265861483e-03  -8.442150111919190e-02
     8    9.195347573204482e-02  -1.302635777664108e-01   2.967770731199195e-01





 ###########################################
 # Finishing finite difference calculation #
 ###########################################

 Requested basis set is def2-SVPD
 There are 56 shells and 136 basis functions
 **********************************************************************
 **                                                                  **
 **                       VIBRATIONAL ANALYSIS                       **
 **                       --------------------                       **
 **                                                                  **
 **        VIBRATIONAL FREQUENCIES (CM**-1) AND NORMAL MODES         **
 **     FORCE CONSTANTS (mDYN/ANGSTROM) AND REDUCED MASSES (AMU)     **
 **                  INFRARED INTENSITIES (KM/MOL)                   **
 **                                                                  **
 **********************************************************************
 

 Mode:                 1                      2                      3
 Frequency:       -16.18                  -5.46                  23.69
 Force Cnst:      0.0008                 0.0001                 0.0003
 Red. Mass:       5.1704                 5.5749                 1.0237
 IR Active:          YES                    YES                    YES
 IR Intens:        0.610                  2.467                  0.535
 Raman Active:       YES                    YES                    YES
               X      Y      Z        X      Y      Z        X      Y      Z
 O         -0.000  0.000  0.160    0.019 -0.165  0.000   -0.000  0.000  0.001
 H          0.314 -0.118  0.396    0.034 -0.495 -0.000    0.020  0.705  0.040
 H         -0.314  0.118  0.396    0.034 -0.495  0.000   -0.020 -0.705  0.040
 H          0.000 -0.000 -0.465    0.012  0.488 -0.000   -0.000 -0.000 -0.014
 C          0.000 -0.000 -0.155   -0.001  0.163 -0.000    0.000 -0.000 -0.004
 F         -0.000 -0.000 -0.014    0.370  0.006  0.000   -0.000 -0.000  0.015
 F          0.312 -0.009 -0.020   -0.195  0.028  0.000    0.009  0.013 -0.008
 F         -0.312  0.009 -0.020   -0.195  0.028 -0.000   -0.009 -0.013 -0.008
 TransDip  -0.000  0.000  0.025    0.006 -0.050  0.000   -0.000  0.000  0.023

 Mode:                 4                      5                      6
 Frequency:        84.42                 114.26                 143.39
 Force Cnst:      0.0286                 0.0096                 0.0142
 Red. Mass:       6.8144                 1.2542                 1.1759
 IR Active:          YES                    YES                    YES
 IR Intens:        0.021                245.750                 81.641
 Raman Active:       YES                    YES                    YES
               X      Y      Z        X      Y      Z        X      Y      Z
 O          0.548  0.003  0.000    0.003 -0.120 -0.000    0.000  0.000 -0.091
 H          0.548  0.028  0.000   -0.033  0.700  0.000    0.599 -0.027  0.366
 H          0.548  0.028 -0.000   -0.033  0.700 -0.000   -0.599  0.027  0.366
 H         -0.133 -0.022 -0.000    0.002  0.038  0.000   -0.000 -0.000  0.041
 C         -0.141 -0.007 -0.000    0.001  0.014  0.000   -0.000 -0.000  0.018
 F         -0.160  0.002 -0.000    0.031  0.004  0.000   -0.000 -0.000  0.008
 F         -0.132 -0.001 -0.001   -0.015  0.006 -0.000   -0.033 -0.000  0.008
 F         -0.132 -0.001  0.001   -0.015  0.006  0.000    0.033  0.000  0.008
 TransDip  -0.001  0.005 -0.000   -0.022  0.502  0.000    0.000 -0.000  0.289

 Mode:                 7                      8                      9
 Frequency:       507.68                 507.83                 700.00
 Force Cnst:      2.1068                 2.1100                 3.8979
 Red. Mass:      13.8737                13.8870                13.5015
 IR Active:          YES                    YES                    YES
 IR Intens:        2.680                  2.706                 14.341
 Raman Active:       YES                    YES                    YES
               X      Y      Z        X      Y      Z        X      Y      Z
 O         -0.000 -0.002 -0.000   -0.000 -0.000  0.003   -0.004  0.000  0.000
 H         -0.001  0.013 -0.000   -0.021 -0.003 -0.013   -0.004  0.000 -0.000
 H         -0.001  0.013  0.000    0.021  0.003 -0.013   -0.004  0.000  0.000
 H          0.021  0.508  0.000    0.000  0.000 -0.507    0.474 -0.020 -0.000
 C          0.011  0.257  0.000    0.000  0.000 -0.258    0.454 -0.018 -0.000
 F         -0.047  0.407 -0.000   -0.000  0.000  0.531   -0.086  0.426  0.000
 F          0.020 -0.298  0.405   -0.070 -0.403 -0.171   -0.111 -0.207 -0.367
 F          0.020 -0.298 -0.405    0.070  0.403 -0.171   -0.111 -0.207  0.367
 TransDip   0.002  0.052  0.000    0.000  0.000 -0.053    0.121 -0.004 -0.000

 Mode:                10                     11                     12
 Frequency:      1147.83                1163.46                1163.76
 Force Cnst:      6.4713                 4.3728                 4.4737
 Red. Mass:       8.3365                 5.4829                 5.6065
 IR Active:          YES                    YES                    YES
 IR Intens:       96.457                309.169                311.129
 Raman Active:       YES                    YES                    YES
               X      Y      Z        X      Y      Z        X      Y      Z
 O          0.001  0.000 -0.000   -0.000 -0.002  0.000   -0.000 -0.000 -0.003
 H         -0.004 -0.000 -0.004    0.000  0.010  0.001    0.016 -0.001  0.010
 H         -0.004 -0.000  0.004    0.000  0.010 -0.001   -0.016  0.001  0.010
 H          0.664 -0.018 -0.000    0.029  0.807 -0.000    0.000  0.000  0.801
 C          0.624 -0.023 -0.000    0.018  0.505 -0.000    0.000  0.000  0.514
 F         -0.152 -0.185  0.000   -0.123 -0.213  0.000   -0.000 -0.000 -0.023
 F         -0.139  0.100  0.163    0.055 -0.074 -0.085    0.097 -0.090 -0.171
 F         -0.139  0.100 -0.163    0.055 -0.074  0.085   -0.097  0.090 -0.171
 TransDip   0.314 -0.011 -0.000    0.021  0.563 -0.000    0.000  0.000  0.565

 Mode:                13                     14                     15
 Frequency:      1391.59                1396.44                1595.87
 Force Cnst:      1.4023                 1.4037                 1.6247
 Red. Mass:       1.2291                 1.2217                 1.0827
 IR Active:          YES                    YES                    YES
 IR Intens:       45.548                 43.028                 82.301
 Raman Active:       YES                    YES                    YES
               X      Y      Z        X      Y      Z        X      Y      Z
 O          0.000 -0.000  0.000    0.000  0.000 -0.001   -0.071 -0.003  0.000
 H         -0.001 -0.000 -0.001    0.003  0.000  0.002    0.560  0.024  0.429
 H         -0.001 -0.000  0.001   -0.003 -0.000  0.002    0.560  0.024 -0.429
 H          0.038  0.990 -0.000    0.000  0.000  0.991    0.000  0.001 -0.000
 C         -0.006 -0.135  0.000   -0.000 -0.000 -0.133    0.001 -0.000 -0.000
 F         -0.022  0.009  0.000   -0.000  0.000  0.014   -0.000 -0.000 -0.000
 F          0.012  0.012 -0.003    0.019 -0.004  0.009   -0.000  0.000  0.000
 F          0.012  0.012  0.003   -0.019  0.004  0.009   -0.000  0.000 -0.000
 TransDip  -0.009 -0.216  0.000   -0.000 -0.000 -0.210    0.290  0.012 -0.000

 Mode:                16                     17                     18
 Frequency:      3217.49                3873.98                3977.58
 Force Cnst:      6.6605                 9.2429                10.0911
 Red. Mass:       1.0920                 1.0453                 1.0826
 IR Active:          YES                    YES                    YES
 IR Intens:       16.721                  8.467                 78.912
 Raman Active:       YES                    YES                    YES
               X      Y      Z        X      Y      Z        X      Y      Z
 O         -0.001 -0.000  0.000    0.050  0.002 -0.000   -0.000 -0.000 -0.071
 H         -0.001 -0.000  0.000   -0.396 -0.018  0.584   -0.428 -0.019  0.561
 H         -0.001 -0.000 -0.000   -0.396 -0.018 -0.584    0.428  0.019  0.561
 H          0.995 -0.039 -0.000   -0.000  0.000  0.000   -0.000  0.000 -0.000
 C         -0.087  0.003 -0.000    0.000 -0.000  0.000    0.000 -0.000  0.000
 F          0.001  0.000 -0.000   -0.000 -0.000  0.000    0.000  0.000 -0.000
 F          0.001 -0.000 -0.000   -0.000  0.000  0.000   -0.000 -0.000 -0.000
 F          0.001 -0.000  0.000   -0.000  0.000 -0.000    0.000  0.000 -0.000
 TransDip  -0.131  0.005 -0.000   -0.093 -0.004  0.000    0.000 -0.000  0.285

 STANDARD THERMODYNAMIC QUANTITIES AT   298.15 K  AND     1.00 ATM

   This Molecule has  2 Imaginary Frequencies
   Zero point vibrational energy:       30.034 kcal/mol

   Atom    1 Element O  Has Mass   15.99491
   Atom    2 Element H  Has Mass    1.00783
   Atom    3 Element H  Has Mass    1.00783
   Atom    4 Element H  Has Mass    1.00783
   Atom    5 Element C  Has Mass   12.00000
   Atom    6 Element F  Has Mass   18.99840
   Atom    7 Element F  Has Mass   18.99840
   Atom    8 Element F  Has Mass   18.99840
   Molecular Mass:    88.013600 amu
   Principal axes and moments of inertia in amu*Bohr^2:
                             1           2           3
    Eigenvalues --      323.93774   989.72674   994.20344
          X              -1.00000     0.00000     0.00044
          Y              -0.00044     0.00000    -1.00000
          Z              -0.00000     1.00000     0.00000
   Rotational Symmetry Number is   1
   The Molecule is an Asymmetric Top
   Translational Enthalpy:        0.889 kcal/mol
   Rotational Enthalpy:           0.889 kcal/mol
   Vibrational Enthalpy:         32.322 kcal/mol
   gas constant (RT):             0.592 kcal/mol
   Translational Entropy:        39.337  cal/mol.K
   Rotational Entropy:           27.258  cal/mol.K
   Vibrational Entropy:          17.813  cal/mol.K

   Total Enthalpy:               34.692 kcal/mol
   Total Entropy:                84.408  cal/mol.K

   Quasi-RRHO corrections using alpha = 4, and omega = 100 cm^-1
   QRRHO-Vib. Enthalpy:          31.646 kcal/mol
   QRRHO-Vib. Entropy:           15.075  cal/mol.K
   QRRHO-Total Enthalpy:         34.016 kcal/mol
   QRRHO-Total Entropy:          81.670  cal/mol.K
 Total job time:  866.54s(wall), 1565.53s(cpu) 
 Wed May 29 16:38:19 2024

        *************************************************************
        *                                                           *
        *  Thank you very much for using Q-Chem.  Have a nice day.  *
        *                                                           *
        *************************************************************


