
Running Job 1 of 6 Me3SiH_BrCN_adiabatic_eda.in
qchem Me3SiH_BrCN_adiabatic_eda.in_23574.0 /scratch/qchem_scratch/qchem23574/ 0
/opt/qchem/6.0.2/exe/qcprog.exe_s Me3SiH_BrCN_adiabatic_eda.in_23574.0 /scratch/qchem_scratch/qchem23574/
                  Welcome to Q-Chem
     A Quantum Leap Into The Future Of Chemistry


 Q-Chem 6.0, Q-Chem, Inc., Pleasanton, CA (2022)

 E. Epifanovsky,  A. T. B. Gilbert,  Xintian Feng,  Joonho Lee,  Yuezhi Mao,  
 N. Mardirossian,  P. Pokhilko,  A. White,  M. Wormit,  M. P. Coons,  
 A. L. Dempwolff,  Zhengting Gan,  D. Hait,  P. R. Horn,  L. D. Jacobson,  
 I. Kaliman,  J. Kussmann,  A. W. Lange,  Ka Un Lao,  D. S. Levine,  Jie Liu,  
 S. C. McKenzie,  A. F. Morrison,  K. Nanda,  F. Plasser,  D. R. Rehn,  
 M. L. Vidal,  Zhi-Qiang You,  Ying Zhu,  B. Alam,  B. Albrecht,  
 A. Aldossary,  E. Alguire,  J. H. Andersen,  V. Athavale,  D. Barton,  
 K. Begam,  A. Behn,  N. Bellonzi,  Y. A. Bernard,  E. J. Berquist,  
 H. Burton,  A. Carreras,  K. Carter-Fenk,  Romit Chakraborty,  
 Chandrima Chakravarty,  Junhan Chen,  A. D. Chien,  K. D. Closser,  
 V. Cofer-Shabica,  L. Cunha,  S. Dasgupta,  Jia Deng,  M. de Wergifosse,  
 M. Diedenhofen,  Hainam Do,  S. Ehlert,  Po-Tung Fang,  S. Fatehi,  
 Qingguo Feng,  T. Friedhoff,  B. Ganoe,  J. Gayvert,  Qinghui Ge,  
 G. Gidofalvi,  M. Goldey,  J. Gomes,  C. Gonzalez-Espinoza,  S. Gulania,  
 A. Gunina,  J. A. Gyamfi,  M. W. D. Hanson-Heine,  P. H. P. Harbach,  
 A. W. Hauser,  M. F. Herbst,  M. Hernandez Vera,  M. Hodecker,  
 Z. C. Holden,  S. Houck,  Xunkun Huang,  Kerwin Hui,  B. C. Huynh,  
 K. Ikeda,  M. Ivanov,  Hyunjun Ji,  Zuxin Jin,  Hanjie Jiang,  B. Kaduk,  
 S. Kaehler,  R. Kang,  K. Khistyaev,  Jaehoon Kim,  Yongbin Kim,  
 P. Klunzinger,  Z. Koczor-Benda,  Joong Hoon Koh,  D. Kosenkov,  
 Saikiran Kotaru,  L. Koulias,  T. Kowalczyk,  C. M. Krauter,  K. Kue,  
 A. Kunitsa,  T. Kus,  A. Landau,  K. V. Lawler,  D. Lefrancois,  S. Lehtola,  
 Rain Li,  Shaozhi Li,  Yi-Pei Li,  Jiashu Liang,  M. Liebenthal,  
 Hung-Hsuan Lin,  You-Sheng Lin,  Fenglai Liu,  Kuan-Yu Liu,  
 M. Loipersberger,  A. Luenser,  C. Malbon,  A. Manjanath,  P. Manohar,  
 E. Mansoor,  S. F. Manzer,  Shan-Ping Mao,  A. V. Marenich,  T. Markovich,  
 S. Mason,  F. Matz,  S. A. Maurer,  P. F. McLaughlin,  M. F. S. J. Menger,  
 J.-M. Mewes,  S. A. Mewes,  P. Morgante,  Mohammad Mostafanejad,  
 J. W. Mullinax,  K. J. Oosterbaan,  G. Paran,  V. Parravicini,  
 Alexander C. Paul,  Suranjan K. Paul,  F. Pavosevic,  Zheng Pei,  S. Prager,  
 E. I. Proynov,  E. Ramos,  B. Rana,  A. E. Rask,  A. Rettig,  R. M. Richard,  
 F. Rob,  E. Rossomme,  T. Scheele,  M. Scheurer,  M. Schneider,  
 P. E. Schneider,  N. Sergueev,  S. M. Sharada,  Hengyuan Shen,  
 W. Skomorowski,  D. W. Small,  C. J. Stein,  Yingli Su,  Yu-Chuan Su,  
 E. J. Sundstrom,  Zhen Tao,  J. Thirman,  Hung-Yi Tsai,  T. Tsuchimochi,  
 N. M. Tubman,  C. Utku,  S. P. Veccham,  O. Vydrov,  J. Wenzel,  
 Jonathan Wong,  J. Witte,  A. Yamada,  Chou-Hsun Yang,  Kun Yao,  
 S. Yeganeh,  S. R. Yost,  A. Zech,  F. Zeller,  Igor Ying Zhang,  
 Xing Zhang,  Yu Zhang,  D. Zuev,  A. Aspuru-Guzik,  A. T. Bell,  
 N. A. Besley,  K. B. Bravaya,  B. R. Brooks,  D. Casanova,  Jeng-Da Chai,  
 Hsing-Ta Chen,  S. Coriani,  C. J. Cramer,  A. E. DePrince, III,  
 R. A. DiStasio Jr.,  A. Dreuw,  B. D. Dunietz,  T. R. Furlani,  
 W. A. Goddard III,  S. Grimme,  S. Hammes-Schiffer,  T. Head-Gordon,  
 W. J. Hehre,  Chao-Ping Hsu,  T.-C. Jagau,  Yousung Jung,  A. Klamt,  
 Jing Kong,  D. S. Lambrecht,  Xiangyuan Li,  WanZhen Liang,  N. J. Mayhall,  
 C. W. McCurdy,  J. B. Neaton,  T. Neudecker,  C. Ochsenfeld,  
 J. A. Parkhill,  R. Peverati,  V. A. Rassolov,  Haisheng Ren,  Yihan Shao,  
 L. V. Slipchenko,  R. P. Steele,  J. E. Subotnik,  A. J. W. Thom,  
 A. Tkatchenko,  D. G. Truhlar,  T. Van Voorhis,  Fan Wang,  
 T. A. Wesolowski,  K. B. Whaley,  H. L. Woodcock III,  P. M. Zimmerman,  
 S. Faraji,  P. M. W. Gill,  M. Head-Gordon,  J. M. Herbert,  A. I. Krylov

 Contributors to earlier versions of Q-Chem not listed above: 
 R. D. Adamson,  B. Austin,  R. Baer,  J. Baker,  G. J. O. Beran,  
 K. Brandhorst,  S. T. Brown,  E. F. C. Byrd,  Arup K. Chakraborty,  
 G. K. L. Chan,  Chun-Min Chang,  Yunqing Chen,  C.-L. Cheng,  
 Siu Hung Chien,  D. M. Chipman,  D. L. Crittenden,  H. Dachsel,  
 R. J. Doerksen,  A. D. Dutoi,  R. G. Edgar,  J. Fosso-Tande,  
 L. Fusti-Molnar,  D. Ghosh,  A. Ghysels,  A. Golubeva-Zadorozhnaya,  
 J. Gonthier,  M. S. Gordon,  S. R. Gwaltney,  G. Hawkins,  J. E. Herr,  
 A. Heyden,  S. Hirata,  E. G. Hohenstein,  G. Kedziora,  F. J. Keil,  
 C. Kelley,  Jihan Kim,  R. A. King,  R. Z. Khaliullin,  P. P. Korambath,  
 W. Kurlancheek,  A. Laurent,  A. M. Lee,  M. S. Lee,  S. V. Levchenko,  
 Ching Yeh Lin,  D. Liotard,  E. Livshits,  R. C. Lochan,  I. Lotan,  
 L. A. Martinez-Martinez,  P. E. Maslen,  N. Nair,  D. P. O'Neill,  
 D. Neuhauser,  E. Neuscamman,  C. M. Oana,  R. Olivares-Amaya,  R. Olson,  
 T. M. Perrine,  B. Peters,  P. A. Pieniazek,  A. Prociuk,  Y. M. Rhee,  
 J. Ritchie,  M. A. Rohrdanz,  E. Rosta,  N. J. Russ,  H. F. Schaefer III,  
 M. W. Schmidt,  N. E. Schultz,  S. Sharma,  N. Shenvi,  C. D. Sherrill,  
 A. C. Simmonett,  A. Sodt,  T. Stein,  D. Stuck,  K. S. Thanthiriwatte,  
 V. Vanovschi,  L. Vogt,  Tao Wang,  A. Warshel,  M. A. Watson,  
 C. F. Williams,  Q. Wu,  X. Xu,  Jun Yang,  W. Zhang,  Yan Zhao

   Please cite Q-Chem as follows:
  "Software for the frontiers of quantum chemistry:
   An overview of developments in the Q-Chem 5 package"
   J. Chem. Phys. 155, 084801 (2021)
   https://doi.org/10.1063/5.0055522 (open access)

 Q-Chem 6.0.2 for Intel X86 EM64T Linux

 Parts of Q-Chem use Armadillo 9.900.5 (Nocturnal Misbehaviour).
 http://arma.sourceforge.net/

 Q-Chem begins on Sat Nov 18 16:43:20 2023  

 Host: 
0

     Scratch files written to /scratch/qchem_scratch/qchem23574//
 Dec722 |scratch|qcdevops|jenkins|workspace|build_RNUM 8907   
 Processing $rem in /opt/qchem/6.0.2/config/preferences:
 Processing $rem in /home/mao_group/.qchemrc:

 Checking the input file for inconsistencies... 	...done.

--------------------------------------------------------------
User input:
--------------------------------------------------------------
$molecule
0 1
--
0 1
H    -0.02822   -0.14563   -0.03591
Si   -0.02665   -0.06263   1.45428
C    1.74862    -0.04594   2.03285
C    -0.90349   1.51043    1.95140
C    -0.93024   -1.55523   2.12226
H    2.27180    -0.94950   1.72553
H    1.79468    0.01420    3.11946
H    2.28721    0.80860    1.62757
H    -0.40634   2.38728    1.54027
H    -1.93555   1.51607    1.60429
H    -0.91750   1.61247    3.03592
H    -1.96271   -1.58126   1.77728
H    -0.44905   -2.48086   1.81125
H    -0.94459   -1.53608   3.21139
--
0 1
Br   -2.38811   -0.20122   -1.35781
C    -3.97333   -0.23477   -2.18027
N    -5.01455   -0.25665   -2.71773
$end

$rem
JOBTYPE  OPT
GEN_SCFMAN  TRUE
METHOD  WB97X-V
BASIS  DEF2-SVPD
UNRESTRICTED  FALSE
MAX_SCF_CYCLES  2000
THRESH  14
SCF_CONVERGENCE  9
MEM_TOTAL  8000
MEM_STATIC  2000
SCF_GUESS  FRAGMO
SYMMETRY  FALSE
SYM_IGNORE  FALSE
SCF_ALGORITHM  DIIS
BASIS_LIN_DEP_THRESH  6
IDERIV  1
XC_GRID  000075000302
NL_GRID  1
FD_MAT_VEC_PROD  FALSE
GEOM_OPT_TOL_GRADIENT  50
GEOM_OPT_TOL_DISPLACEMENT  50
GEOM_OPT_TOL_ENERGY  10
GEOM_OPT_DRIVER  OPTIMIZE
GEOM_OPT_MAX_CYCLES  200
$end

--------------------------------------------------------------
 ----------------------------------------------------------------
             Standard Nuclear Orientation (Angstroms)
    I     Atom           X                Y                Z
 ----------------------------------------------------------------
    1      H       1.1051392333     0.0001011797     1.1130260153
    2      Si      2.1647593585    -0.0000227316     0.0619490077
    3      C       3.8267035660     0.0019750395     0.9131498264
    4      C       1.9523483609    -1.5363495215    -0.9797208088
    5      C       1.9501551238     1.5341826630    -0.9824100102
    6      H       3.9470503026     0.8830781359     1.5406508743
    7      H       4.6310032086     0.0019248716     0.1786011775
    8      H       3.9483747562    -0.8778151059     1.5422246229
    9      H       2.0414211207    -2.4384250604    -0.3769126407
   10      H       0.9790732209    -1.5534269483    -1.4676848121
   11      H       2.7142467407    -1.5778941257    -1.7572662909
   12      H       0.9770216207     1.5488468484    -1.4707533414
   13      H       2.0375348858     2.4374347252    -0.3811094012
   14      H       2.7122574881     1.5756563445    -1.7597495254
   15      Br     -1.4968592081     0.0000971279     0.3719492438
   16      C      -3.1981766122    -0.0000534918    -0.1721165336
   17      N      -4.3136948492    -0.0001557476    -0.5314215947
 ----------------------------------------------------------------
 Molecular Point Group                 C1    NOp =  1
 Largest Abelian Subgroup              C1    NOp =  1
 Nuclear Repulsion Energy =         536.99684313 hartrees
 There are       45 alpha and       45 beta electrons
 Requested basis set is def2-SVPD
 There are 105 shells and 245 basis functions

 Total QAlloc Memory Limit   8000 MB
 Mega-Array Size      1956 MB
 MEM_STATIC part      2000 MB

 A cutoff of  1.0D-14 yielded   5087 shell pairs
 There are     27691 function pairs (     31427 Cartesian)
 Smallest overlap matrix eigenvalue = 1.48E-04

 Scale SEOQF with 1.000000e-01/1.000000e-01/1.000000e-01

 Standard Electronic Orientation quadrupole field applied
 Nucleus-field energy     =     0.0000000189 hartrees
 Attempting to make child job directory: /scratch/qchem_scratch/qchem23574//Frg1/
 Attempting to make child job directory: /scratch/qchem_scratch/qchem23574//Frg2/
 Creating input file /scratch/qchem_scratch/qchem23574/Frg1.input
 using default PutDataFrgm: nothing
 calling putenv with: QCSCRATCH=/scratch/qchem_scratch/qchem23574/ 
 Spawning Job For Fragment 0
 Done Job For Fragment 0
 calling putenv with: QCSCRATCH=/scratch/qchem_scratch 
 calling putenv with: QCTHREADS=24 
 Creating input file /scratch/qchem_scratch/qchem23574/Frg2.input
 using default PutDataFrgm: nothing
 calling putenv with: QCSCRATCH=/scratch/qchem_scratch/qchem23574/ 
 Spawning Job For Fragment 1
 Done Job For Fragment 1
 calling putenv with: QCSCRATCH=/scratch/qchem_scratch 
 calling putenv with: QCTHREADS=24 
 Time for running child jobs:  CPU 3.76 s  wall 15.04 s
In frgmchild_fg_r_u. Opt. 5

 -----------------------------------------------------------------------
  General SCF calculation program by
  Eric Jon Sundstrom, Paul Horn, Yuezhi Mao, Dmitri Zuev, Alec White,
  David Stuck, Shaama M.S., Shane Yost, Joonho Lee, David Small,
  Daniel Levine, Susi Lehtola, Hugh Burton, Evgeny Epifanovsky,
  Bang C. Huynh
 -----------------------------------------------------------------------
 Exchange:     0.1670 Hartree-Fock + 1.0000 wB97X-V + LR-HF
 Correlation:  1.0000 wB97X-V
 Using Euler-Maclaurin-Lebedev (75,302) quadrature formula
 Nonlocal Correlation:  VV10 with C = 0.0100 and b = 6.00 and scale = 1.00000
 Grid used for NLC:  SG-1 standard quadrature
 using 24 threads for integral computing
 -------------------------------------------------------
 OpenMP Integral computing Module                
 Release: version 1.0, May 2013, Q-Chem Inc. Pittsburgh 
 -------------------------------------------------------
 A restricted SCF calculation will be
 performed using DIIS
 SCF converges when DIIS error is below 1.0e-09
 ---------------------------------------
  Cycle       Energy         DIIS error
 ---------------------------------------
    1   -3075.9342649578      2.20e-03  
    2   -3075.9382311138      1.10e-04  
    3   -3075.9384943191      4.59e-05  
    4   -3075.9385240133      2.34e-05  
    5   -3075.9385303408      1.42e-05  
    6   -3075.9385317581      2.78e-06  
    7   -3075.9385318434      7.50e-07  
    8   -3075.9385318524      1.87e-07  
    9   -3075.9385318529      6.43e-08  
   10   -3075.9385318530      1.24e-08  
   11   -3075.9385318530      3.89e-09  
   12   -3075.9385318530      1.63e-09  
   13   -3075.9385318530      5.76e-10  Convergence criterion met
 ---------------------------------------
 SCF time:   CPU 494.89s  wall 21.00s 
 SCF   energy in the final basis set =    -3075.9385318530
 Total energy in the final basis set =    -3075.9385318530
 
 --------------------------------------------------------------
 
                    Orbital Energies (a.u.)
 --------------------------------------------------------------
 
 Alpha MOs
 -- Occupied --
******** -66.1311 -62.5713 -56.3947 -56.3899 -56.3899 -14.4508 -10.3758
-10.2712 -10.2710 -10.2709  -8.8676  -6.7041  -6.6871  -6.6871  -5.3871
 -3.7415  -3.7404  -3.7403  -2.8253  -2.8203  -2.8203  -2.8071  -2.8071
 -1.0568  -0.9885  -0.8567  -0.8153  -0.8151  -0.6591  -0.6063  -0.5443
 -0.5328  -0.5312  -0.5216  -0.5201  -0.5104  -0.5102  -0.4994  -0.4964
 -0.4246  -0.4210  -0.4206  -0.4177  -0.4169
 -- Virtual --
  0.0494   0.0675   0.0770   0.0791   0.0857   0.1002   0.1004   0.1167
  0.1217   0.1270   0.1465   0.1507   0.1552   0.1647   0.1661   0.1780
  0.1866   0.1872   0.1937   0.2002   0.2022   0.2070   0.2193   0.2256
  0.2313   0.2447   0.2517   0.2635   0.2753   0.2876   0.2905   0.3019
  0.3031   0.3076   0.3187   0.3248   0.3383   0.3434   0.3470   0.3607
  0.3679   0.3836   0.3875   0.3917   0.3999   0.4011   0.4064   0.4127
  0.4133   0.4227   0.4260   0.4366   0.4416   0.4457   0.4468   0.4545
  0.4743   0.4749   0.4753   0.4786   0.4789   0.4939   0.5000   0.5022
  0.5171   0.5264   0.5280   0.5378   0.5446   0.5491   0.5492   0.5594
  0.5739   0.5840   0.5915   0.5971   0.5983   0.6046   0.6055   0.6140
  0.6167   0.6208   0.6369   0.6467   0.6477   0.6640   0.6685   0.6706
  0.7057   0.7243   0.7307   0.7717   0.7719   0.8059   0.8115   0.8171
  0.8269   0.8321   0.8634   0.9025   0.9100   0.9147   0.9236   0.9389
  0.9620   0.9686   0.9893   0.9918   1.0222   1.0265   1.0461   1.0497
  1.0610   1.0664   1.0847   1.0913   1.0980   1.0986   1.1112   1.1179
  1.1315   1.1720   1.1761   1.1853   1.1954   1.2488   1.2664   1.2787
  1.2821   1.2886   1.3105   1.3150   1.3285   1.3555   1.3925   1.4006
  1.4337   1.4418   1.4865   1.6416   1.6837   1.6951   1.7159   1.7453
  1.7662   1.7853   1.8128   1.8184   1.8292   1.8463   1.8477   1.8800
  1.8820   1.9220   1.9531   2.0280   2.0355   2.0357   2.0402   2.0707
  2.0739   2.0951   2.1175   2.1437   2.1565   2.1768   2.2135   2.2273
  2.2493   2.2593   2.3452   2.4638   2.4912   2.4931   2.5337   2.5351
  2.6277   2.6312   2.6322   2.6462   2.6501   2.6634   2.8306   2.9294
  2.9353   2.9433   2.9527   2.9538   3.1978   3.2054   3.2074   3.2379
  3.2470   3.2665   3.5536   3.6370   3.6426   3.7265   3.7612   4.0203
 --------------------------------------------------------------
 
          Ground-State Mulliken Net Atomic Charges

     Atom                 Charge (a.u.)
  ----------------------------------------
      1 H                     0.226310
      2 Si                   -0.533385
      3 C                     0.349698
      4 C                     0.270092
      5 C                     0.270224
      6 H                    -0.046519
      7 H                    -0.027090
      8 H                    -0.046518
      9 H                    -0.057018
     10 H                    -0.108483
     11 H                    -0.047956
     12 H                    -0.108663
     13 H                    -0.056981
     14 H                    -0.048084
     15 Br                   -0.141854
     16 C                     0.281402
     17 N                    -0.175174
  ----------------------------------------
  Sum of atomic charges =     0.000000

 -----------------------------------------------------------------
                    Cartesian Multipole Moments
 -----------------------------------------------------------------
    Charge (ESU x 10^10)
                 0.0000
    Dipole Moment (Debye)
         X       4.2373      Y       0.0002      Z       0.4961
       Tot       4.2662
    Quadrupole Moments (Debye-Ang)
        XX     -80.6755     XY      -0.0012     YY     -64.3230
        XZ      -4.0743     YZ      -0.0002     ZZ     -64.9963
    Octopole Moments (Debye-Ang^2)
       XXX      60.8900    XXY       0.0003    XYY     -14.9096
       YYY       0.0142    XXZ      16.6160    XYZ      -0.0044
       YYZ       7.4238    XZZ     -12.8084    YZZ      -0.0045
       ZZZ      11.3493
    Hexadecapole Moments (Debye-Ang^3)
      XXXX   -3200.0830   XXXY      -0.0656   XXYY    -499.4599
      XYYY       0.0191   YYYY    -334.8325   XXXZ    -124.5758
      XXYZ      -0.0260   XYYZ       1.6410   YYYZ      -0.0011
      XXZZ    -497.2823   XYZZ      -0.0148   YYZZ    -102.4022
      XZZZ     -24.9218   YZZZ       0.0038   ZZZZ    -271.7263
 -----------------------------------------------------------------
 Calculating analytic gradient of the SCF energy
 Gradient of SCF Energy
            1           2           3           4           5           6
    1   0.0030968  -0.0004401   0.0039364  -0.0001529  -0.0001475  -0.0012314
    2  -0.0000017  -0.0000021   0.0000028  -0.0033543   0.0033478  -0.0071291
    3  -0.0039459   0.0000418   0.0016630  -0.0023831  -0.0023915  -0.0052427
            7           8           9          10          11          12
    1  -0.0067522  -0.0012425  -0.0006395   0.0077394  -0.0060191   0.0077320
    2   0.0000002   0.0071212   0.0075524   0.0004140   0.0005713  -0.0003944
    3   0.0058410  -0.0052580  -0.0046976   0.0040836   0.0063809   0.0040843
           13          14          15          16          17
    1  -0.0006258  -0.0060235  -0.0043470   0.0381320  -0.0330149
    2  -0.0075592  -0.0005701   0.0000004   0.0000037  -0.0000031
    3  -0.0046837   0.0063833  -0.0017393   0.0125749  -0.0107111
 Max gradient component =       3.813E-02
 RMS gradient           =       8.428E-03
 Gradient time:  CPU 366.09 s  wall 15.34 s
 Geometry Optimization Parameters
   NAtoms,    NIC,     NZ,  NCons,   NDum,   NFix, NCnnct, MaxDiis
       17     109       0       0       0       0       0       0


** GEOMETRY OPTIMIZATION IN DELOCALIZED INTERNAL COORDINATES **
   Searching for a Minimum

   Optimization Cycle:   1

                       Coordinates (Angstroms)
     ATOM                X               Y               Z
      1  H         1.1051392333    0.0001011797    1.1130260153
      2  Si        2.1647593585   -0.0000227316    0.0619490077
      3  C         3.8267035660    0.0019750395    0.9131498264
      4  C         1.9523483609   -1.5363495215   -0.9797208088
      5  C         1.9501551238    1.5341826630   -0.9824100102
      6  H         3.9470503026    0.8830781359    1.5406508743
      7  H         4.6310032086    0.0019248716    0.1786011775
      8  H         3.9483747562   -0.8778151059    1.5422246229
      9  H         2.0414211207   -2.4384250604   -0.3769126407
     10  H         0.9790732209   -1.5534269483   -1.4676848121
     11  H         2.7142467407   -1.5778941257   -1.7572662909
     12  H         0.9770216207    1.5488468484   -1.4707533414
     13  H         2.0375348858    2.4374347252   -0.3811094012
     14  H         2.7122574881    1.5756563445   -1.7597495254
     15  Br       -1.4968592081    0.0000971279    0.3719492438
     16  C        -3.1981766122   -0.0000534918   -0.1721165336
     17  N        -4.3136948492   -0.0001557476   -0.5314215947
   Point Group: c1    Number of degrees of freedom:    45


   Energy is  -3075.938531853


 Attempting to generate delocalized internal coordinates
 Initial Hessian constructed with Jon Baker's OPTIMIZE code

 44 Hessian modes will be used to form the next step
  Hessian Eigenvalues:
     0.002000    0.005266    0.005267    0.005405    0.019643    0.037550
     0.045799    0.046018    0.055680    0.055683    0.055987    0.056744
     0.056745    0.145235    0.145747    0.160000    0.160000    0.160000
     0.160000    0.160000    0.160000    0.160000    0.160000    0.160000
     0.160000    0.171963    0.200000    0.200000    0.200000    0.200000
     0.213989    0.213994    0.214624    0.272351    0.348821    0.348829
     0.348998    0.349411    0.349421    0.349743    0.349748    0.349999
     0.350006    1.202783

 Minimum search - taking simple RFO step
 Searching for Lamda that Minimizes Along All modes
 Value Taken    Lamda =  -0.00384451
 Step Taken.  Stepsize is  0.107377

                             Maximum     Tolerance    Cnvgd?
         Gradient           0.024032      0.000050      NO
         Displacement       0.054495      0.000050      NO
         Energy change     *********      0.000000      NO


 New Cartesian Coordinates Obtained by Inverse Iteration

 Displacement from previous Coordinates is:  0.180524
 ----------------------------------------------------------------
             Standard Nuclear Orientation (Angstroms)
    I     Atom           X                Y                Z
 ----------------------------------------------------------------
    1      H       1.0973068805     0.0004462136     1.1241588175
    2      Si      2.1694029910     0.0001323635     0.0623836153
    3      C       3.8423589677     0.0018982052     0.9243477715
    4      C       1.9530156266    -1.5492990874    -0.9864009621
    5      C       1.9512908885     1.5474202524    -0.9892186464
    6      H       3.9644623402     0.8931961113     1.5603570298
    7      H       4.6593517882     0.0016932325     0.1838550546
    8      H       3.9655075011    -0.8880737849     1.5620094216
    9      H       2.0406666869    -2.4631506167    -0.3769260857
   10      H       0.9688227746    -1.5670233963    -1.4818283481
   11      H       2.7237003753    -1.5950156118    -1.7735751801
   12      H       0.9672534665     1.5629843437    -1.4850226921
   13      H       2.0375308498     2.4624686028    -0.3813383214
   14      H       2.7221891348     1.5927561905    -1.7762054681
   15      Br     -1.5208905391    -0.0000118244     0.3766095510
   16      C      -3.2291650741    -0.0004869777    -0.1798231426
   17      N      -4.3344463411    -0.0007800131    -0.5209766059
 ----------------------------------------------------------------
 Molecular Point Group                 C1    NOp =  1
 Largest Abelian Subgroup              C1    NOp =  1
 Nuclear Repulsion Energy =         533.63339993 hartrees
 There are       45 alpha and       45 beta electrons
 Applying Cartesian multipole field
    Component          Value
    ---------          -----
     (2,0,0)        1.00000E-11
     (0,2,0)        2.00000E-11
     (0,0,2)       -3.00000E-11
 Nucleus-field energy     =     0.0000000191 hartrees
 Requested basis set is def2-SVPD
 There are 105 shells and 245 basis functions
 A cutoff of  1.0D-14 yielded   5084 shell pairs
 There are     27670 function pairs (     31403 Cartesian)
 Smallest overlap matrix eigenvalue = 1.51E-04
 Read the previous MOs as SCF guess

 -----------------------------------------------------------------------
  General SCF calculation program by
  Eric Jon Sundstrom, Paul Horn, Yuezhi Mao, Dmitri Zuev, Alec White,
  David Stuck, Shaama M.S., Shane Yost, Joonho Lee, David Small,
  Daniel Levine, Susi Lehtola, Hugh Burton, Evgeny Epifanovsky,
  Bang C. Huynh
 -----------------------------------------------------------------------
 Exchange:     0.1670 Hartree-Fock + 1.0000 wB97X-V + LR-HF
 Correlation:  1.0000 wB97X-V
 Using Euler-Maclaurin-Lebedev (75,302) quadrature formula
 Nonlocal Correlation:  VV10 with C = 0.0100 and b = 6.00 and scale = 1.00000
 Grid used for NLC:  SG-1 standard quadrature
 A restricted SCF calculation will be
 performed using DIIS
 SCF converges when DIIS error is below 1.0e-09
 ---------------------------------------
  Cycle       Energy         DIIS error
 ---------------------------------------
    1   -3075.9397050926      5.47e-04  
    2   -3075.9403538283      7.74e-05  
    3   -3075.9403877069      5.40e-05  
    4   -3075.9404074506      1.80e-05  
    5   -3075.9404095080      8.17e-06  
    6   -3075.9404100885      1.33e-06  
    7   -3075.9404101135      4.92e-07  
    8   -3075.9404101172      1.36e-07  
    9   -3075.9404101176      3.38e-08  
   10   -3075.9404101176      1.28e-08  
   11   -3075.9404101176      3.59e-09  
   12   -3075.9404101176      1.01e-09  
   13   -3075.9404101176      2.34e-10  Convergence criterion met
 ---------------------------------------
 SCF time:   CPU 485.94s  wall 20.00s 
 SCF   energy in the final basis set =    -3075.9404101176
 Total energy in the final basis set =    -3075.9404101176
 
 --------------------------------------------------------------
 
                    Orbital Energies (a.u.)
 --------------------------------------------------------------
 
 Alpha MOs
 -- Occupied --
******** -66.1363 -62.5708 -56.3943 -56.3895 -56.3894 -14.4477 -10.3728
-10.2767 -10.2764 -10.2764  -8.8671  -6.7037  -6.6865  -6.6865  -5.3910
 -3.7454  -3.7444  -3.7443  -2.8248  -2.8198  -2.8198  -2.8065  -2.8065
 -1.0606  -0.9881  -0.8520  -0.8114  -0.8111  -0.6566  -0.6046  -0.5406
 -0.5297  -0.5278  -0.5223  -0.5204  -0.5077  -0.5075  -0.4969  -0.4960
 -0.4235  -0.4229  -0.4228  -0.4172  -0.4165
 -- Virtual --
  0.0466   0.0670   0.0784   0.0809   0.0866   0.1020   0.1023   0.1159
  0.1219   0.1267   0.1461   0.1499   0.1545   0.1633   0.1660   0.1755
  0.1838   0.1863   0.1915   0.1973   0.2000   0.2047   0.2180   0.2243
  0.2297   0.2427   0.2507   0.2625   0.2740   0.2842   0.2872   0.2993
  0.3021   0.3066   0.3163   0.3213   0.3374   0.3412   0.3467   0.3587
  0.3671   0.3814   0.3845   0.3899   0.3986   0.4004   0.4042   0.4105
  0.4113   0.4205   0.4228   0.4347   0.4393   0.4431   0.4443   0.4536
  0.4706   0.4722   0.4726   0.4756   0.4772   0.4911   0.4976   0.4993
  0.5129   0.5247   0.5248   0.5347   0.5408   0.5463   0.5468   0.5563
  0.5724   0.5812   0.5912   0.5953   0.5977   0.6029   0.6031   0.6129
  0.6154   0.6215   0.6352   0.6445   0.6465   0.6608   0.6681   0.6689
  0.7016   0.7187   0.7253   0.7670   0.7786   0.8022   0.8112   0.8171
  0.8257   0.8298   0.8607   0.9000   0.9071   0.9112   0.9197   0.9335
  0.9594   0.9641   0.9875   0.9933   1.0200   1.0234   1.0431   1.0446
  1.0568   1.0636   1.0785   1.0823   1.0915   1.0923   1.1053   1.1111
  1.1284   1.1669   1.1703   1.1808   1.1907   1.2455   1.2626   1.2728
  1.2775   1.2865   1.3062   1.3130   1.3294   1.3525   1.3870   1.3928
  1.4275   1.4366   1.4854   1.6493   1.6830   1.6958   1.7160   1.7473
  1.7690   1.7862   1.8065   1.8105   1.8233   1.8440   1.8453   1.8855
  1.8875   1.9163   1.9475   2.0154   2.0179   2.0189   2.0238   2.0529
  2.0576   2.0789   2.0967   2.1275   2.1382   2.1585   2.1957   2.2096
  2.2306   2.2410   2.3314   2.4476   2.4749   2.4765   2.5378   2.5391
  2.6060   2.6097   2.6106   2.6228   2.6266   2.6389   2.8509   2.8983
  2.9038   2.9098   2.9701   2.9715   3.1772   3.1823   3.1848   3.2145
  3.2233   3.2420   3.5785   3.6376   3.6430   3.7265   3.7604   4.0200
 --------------------------------------------------------------
 
          Ground-State Mulliken Net Atomic Charges

     Atom                 Charge (a.u.)
  ----------------------------------------
      1 H                     0.219220
      2 Si                   -0.464136
      3 C                     0.232333
      4 C                     0.158955
      5 C                     0.159037
      6 H                    -0.015515
      7 H                     0.002205
      8 H                    -0.015504
      9 H                    -0.025108
     10 H                    -0.072858
     11 H                    -0.021862
     12 H                    -0.072996
     13 H                    -0.025087
     14 H                    -0.021935
     15 Br                   -0.146045
     16 C                     0.280560
     17 N                    -0.171262
  ----------------------------------------
  Sum of atomic charges =     0.000000

 -----------------------------------------------------------------
                    Cartesian Multipole Moments
 -----------------------------------------------------------------
    Charge (ESU x 10^10)
                -0.0000
    Dipole Moment (Debye)
         X       4.2099      Y       0.0008      Z       0.4721
       Tot       4.2363
    Quadrupole Moments (Debye-Ang)
        XX     -80.8185     XY      -0.0040     YY     -64.4224
        XZ      -3.9945     YZ      -0.0008     ZZ     -65.0848
    Octopole Moments (Debye-Ang^2)
       XXX      62.3934    XXY       0.0212    XYY     -14.8709
       YYY       0.0270    XXZ      16.4743    XYZ      -0.0010
       YYZ       7.3427    XZZ     -12.7969    YZZ      -0.0003
       ZZZ      11.0557
    Hexadecapole Moments (Debye-Ang^3)
      XXXX   -3242.3308   XXXY      -0.2556   XXYY    -505.6328
      XYYY      -0.0942   YYYY    -340.9541   XXXZ    -124.7553
      XXYZ      -0.0305   XYYZ       1.9158   YYYZ       0.0075
      XXZZ    -502.7370   XYZZ      -0.0561   YYZZ    -104.1316
      XZZZ     -24.4913   YZZZ       0.0109   ZZZZ    -276.1769
 -----------------------------------------------------------------
 Calculating analytic gradient of the SCF energy
 Gradient of SCF Energy
            1           2           3           4           5           6
    1  -0.0009299   0.0005109   0.0000996  -0.0000748  -0.0000744  -0.0000257
    2  -0.0000019  -0.0000005   0.0000008  -0.0001563   0.0001557   0.0001038
    3   0.0001397  -0.0004006   0.0001324  -0.0000616  -0.0000637   0.0000457
            7           8           9          10          11          12
    1  -0.0000461  -0.0000253   0.0000309  -0.0000853   0.0000997  -0.0000847
    2  -0.0000000  -0.0001036  -0.0000554   0.0000176   0.0001418  -0.0000174
    3  -0.0001649   0.0000460   0.0001008  -0.0000235   0.0000029  -0.0000237
           13          14          15          16          17
    1   0.0000302   0.0000997   0.0005361  -0.0009008   0.0008399
    2   0.0000558  -0.0001413   0.0000011  -0.0000011   0.0000008
    3   0.0001008   0.0000033   0.0004610  -0.0011260   0.0008315
 Max gradient component =       1.126E-03
 RMS gradient           =       3.295E-04
 Gradient time:  CPU 364.25 s  wall 15.18 s
 Geometry Optimization Parameters
   NAtoms,    NIC,     NZ,  NCons,   NDum,   NFix, NCnnct, MaxDiis
       17     109       0       0       0       0       0       0

 Cartesian Hessian Update
 Hessian updated using BFGS update


** GEOMETRY OPTIMIZATION IN DELOCALIZED INTERNAL COORDINATES **
   Searching for a Minimum

   Optimization Cycle:   2

                       Coordinates (Angstroms)
     ATOM                X               Y               Z
      1  H         1.0973068805    0.0004462136    1.1241588175
      2  Si        2.1694029910    0.0001323635    0.0623836153
      3  C         3.8423589677    0.0018982052    0.9243477715
      4  C         1.9530156266   -1.5492990874   -0.9864009621
      5  C         1.9512908885    1.5474202524   -0.9892186464
      6  H         3.9644623402    0.8931961113    1.5603570298
      7  H         4.6593517882    0.0016932325    0.1838550546
      8  H         3.9655075011   -0.8880737849    1.5620094216
      9  H         2.0406666869   -2.4631506167   -0.3769260857
     10  H         0.9688227746   -1.5670233963   -1.4818283481
     11  H         2.7237003753   -1.5950156118   -1.7735751801
     12  H         0.9672534665    1.5629843437   -1.4850226921
     13  H         2.0375308498    2.4624686028   -0.3813383214
     14  H         2.7221891348    1.5927561905   -1.7762054681
     15  Br       -1.5208905391   -0.0000118244    0.3766095510
     16  C        -3.2291650741   -0.0004869777   -0.1798231426
     17  N        -4.3344463411   -0.0007800131   -0.5209766059
   Point Group: c1    Number of degrees of freedom:    45


   Energy is  -3075.940410118

 Hessian updated using BFGS update

 35 Hessian modes will be used to form the next step
  Hessian Eigenvalues:
     0.002000    0.005266    0.005267    0.005405    0.019513    0.037548
     0.045799    0.046017    0.055680    0.055683    0.055987    0.056744
     0.056745    0.056889    0.145235    0.145744    0.159571    0.160057
     0.172456    0.194579    0.200022    0.213991    0.214412    0.220496
     0.273163    0.348825    0.348905    0.349110    0.349416    0.349552
     0.349746    0.349892    0.350002    0.357053    1.215781

 Minimum search - taking simple RFO step
 Searching for Lamda that Minimizes Along All modes
 Value Taken    Lamda =  -0.00009835
 Step Taken.  Stepsize is  0.033373

                             Maximum     Tolerance    Cnvgd?
         Gradient           0.003833      0.000050      NO
         Displacement       0.018162      0.000050      NO
         Energy change     -0.001878      0.000000      NO


 New Cartesian Coordinates Obtained by Inverse Iteration

 Displacement from previous Coordinates is:  0.100551
 ----------------------------------------------------------------
             Standard Nuclear Orientation (Angstroms)
    I     Atom           X                Y                Z
 ----------------------------------------------------------------
    1      H       1.1037571280     0.0010496552     1.1282244079
    2      Si      2.1719704064     0.0003853449     0.0642429692
    3      C       3.8477790030     0.0017398358     0.9212933580
    4      C       1.9512180175    -1.5491847519    -0.9839498676
    5      C       1.9503095471     1.5478122325    -0.9869279500
    6      H       3.9720017326     0.8929894569     1.5572515420
    7      H       4.6637664236     0.0012673930     0.1793681052
    8      H       3.9725573220    -0.8881801197     1.5590018566
    9      H       2.0387952906    -2.4633144544    -0.3745674067
   10      H       0.9654835990    -1.5657896434    -1.4767794552
   11      H       2.7194043355    -1.5973956711    -1.7737390915
   12      H       0.9647231664     1.5627417355    -1.4801035626
   13      H       2.0369975344     2.4631576701    -0.3792442652
   14      H       2.7187099192     1.5951235887    -1.7765636440
   15      Br     -1.5279336810    -0.0001874422     0.3782950993
   16      C      -3.2437446488    -0.0011691102    -0.1543179290
   17      N      -4.3274367783    -0.0018915168    -0.5590783577
 ----------------------------------------------------------------
 Molecular Point Group                 C1    NOp =  1
 Largest Abelian Subgroup              C1    NOp =  1
 Nuclear Repulsion Energy =         533.20593919 hartrees
 There are       45 alpha and       45 beta electrons
 Applying Cartesian multipole field
    Component          Value
    ---------          -----
     (2,0,0)        1.00000E-11
     (0,2,0)        2.00000E-11
     (0,0,2)       -3.00000E-11
 Nucleus-field energy     =     0.0000000192 hartrees
 Requested basis set is def2-SVPD
 There are 105 shells and 245 basis functions
 A cutoff of  1.0D-14 yielded   5080 shell pairs
 There are     27658 function pairs (     31389 Cartesian)
 Smallest overlap matrix eigenvalue = 1.56E-04
 Read the previous MOs as SCF guess

 -----------------------------------------------------------------------
  General SCF calculation program by
  Eric Jon Sundstrom, Paul Horn, Yuezhi Mao, Dmitri Zuev, Alec White,
  David Stuck, Shaama M.S., Shane Yost, Joonho Lee, David Small,
  Daniel Levine, Susi Lehtola, Hugh Burton, Evgeny Epifanovsky,
  Bang C. Huynh
 -----------------------------------------------------------------------
 Exchange:     0.1670 Hartree-Fock + 1.0000 wB97X-V + LR-HF
 Correlation:  1.0000 wB97X-V
 Using Euler-Maclaurin-Lebedev (75,302) quadrature formula
 Nonlocal Correlation:  VV10 with C = 0.0100 and b = 6.00 and scale = 1.00000
 Grid used for NLC:  SG-1 standard quadrature
 A restricted SCF calculation will be
 performed using DIIS
 SCF converges when DIIS error is below 1.0e-09
 ---------------------------------------
  Cycle       Energy         DIIS error
 ---------------------------------------
    1   -3075.9373508173      9.69e-04  
    2   -3075.9401069090      9.78e-05  
    3   -3075.9402819559      2.75e-05  
    4   -3075.9403024212      9.87e-06  
    5   -3075.9403033889      6.93e-06  
    6   -3075.9403037851      2.05e-06  
    7   -3075.9403038327      4.43e-07  
    8   -3075.9403038351      1.52e-07  
    9   -3075.9403038355      4.11e-08  
   10   -3075.9403038356      1.14e-08  
   11   -3075.9403038356      3.04e-09  
   12   -3075.9403038356      9.98e-10  Convergence criterion met
 ---------------------------------------
 SCF time:   CPU 448.83s  wall 19.00s 
 SCF   energy in the final basis set =    -3075.9403038356
 Total energy in the final basis set =    -3075.9403038356
 
 --------------------------------------------------------------
 
                    Orbital Energies (a.u.)
 --------------------------------------------------------------
 
 Alpha MOs
 -- Occupied --
******** -66.1362 -62.5709 -56.3944 -56.3895 -56.3895 -14.4479 -10.3730
-10.2768 -10.2764 -10.2764  -8.8672  -6.7037  -6.6866  -6.6865  -5.3910
 -3.7454  -3.7443  -3.7442  -2.8249  -2.8199  -2.8198  -2.8066  -2.8066
 -1.0608  -0.9881  -0.8518  -0.8113  -0.8110  -0.6565  -0.6048  -0.5404
 -0.5295  -0.5276  -0.5224  -0.5206  -0.5076  -0.5073  -0.4967  -0.4961
 -0.4238  -0.4230  -0.4226  -0.4172  -0.4165
 -- Virtual --
  0.0458   0.0670   0.0781   0.0808   0.0864   0.1024   0.1027   0.1169
  0.1217   0.1267   0.1460   0.1499   0.1546   0.1634   0.1662   0.1755
  0.1837   0.1862   0.1911   0.1978   0.2002   0.2046   0.2183   0.2246
  0.2299   0.2429   0.2500   0.2606   0.2740   0.2843   0.2873   0.2990
  0.3022   0.3039   0.3170   0.3214   0.3370   0.3414   0.3495   0.3583
  0.3673   0.3815   0.3841   0.3927   0.3978   0.3993   0.4038   0.4110
  0.4112   0.4215   0.4222   0.4344   0.4390   0.4430   0.4442   0.4524
  0.4707   0.4719   0.4724   0.4747   0.4783   0.4909   0.4966   0.4991
  0.5159   0.5245   0.5246   0.5336   0.5408   0.5464   0.5468   0.5569
  0.5729   0.5785   0.5907   0.5958   0.5986   0.6030   0.6046   0.6135
  0.6160   0.6160   0.6351   0.6465   0.6482   0.6606   0.6684   0.6730
  0.7009   0.7186   0.7252   0.7665   0.7748   0.8019   0.8108   0.8176
  0.8253   0.8296   0.8600   0.8997   0.9075   0.9095   0.9191   0.9331
  0.9594   0.9635   0.9865   0.9926   1.0202   1.0231   1.0405   1.0461
  1.0569   1.0580   1.0787   1.0822   1.0914   1.0938   1.1049   1.1111
  1.1295   1.1670   1.1710   1.1805   1.1913   1.2454   1.2616   1.2726
  1.2773   1.2847   1.3049   1.3178   1.3291   1.3516   1.3852   1.3927
  1.4266   1.4352   1.4853   1.6433   1.6826   1.6960   1.7160   1.7476
  1.7688   1.7865   1.8064   1.8102   1.8234   1.8441   1.8454   1.8857
  1.8911   1.9162   1.9473   2.0153   2.0177   2.0188   2.0236   2.0526
  2.0574   2.0780   2.0964   2.1271   2.1377   2.1579   2.1951   2.2091
  2.2305   2.2407   2.3322   2.4484   2.4753   2.4768   2.5370   2.5386
  2.6056   2.6094   2.6103   2.6226   2.6263   2.6387   2.8437   2.8976
  2.9029   2.9088   2.9697   2.9771   3.1770   3.1823   3.1847   3.2143
  3.2230   3.2420   3.5765   3.6363   3.6423   3.7264   3.7607   4.0173
 --------------------------------------------------------------
 
          Ground-State Mulliken Net Atomic Charges

     Atom                 Charge (a.u.)
  ----------------------------------------
      1 H                     0.223880
      2 Si                   -0.466548
      3 C                     0.229714
      4 C                     0.156301
      5 C                     0.156293
      6 H                    -0.015214
      7 H                     0.001956
      8 H                    -0.015223
      9 H                    -0.024441
     10 H                    -0.072373
     11 H                    -0.022154
     12 H                    -0.072395
     13 H                    -0.024429
     14 H                    -0.022189
     15 Br                   -0.139055
     16 C                     0.281186
     17 N                    -0.175308
  ----------------------------------------
  Sum of atomic charges =     0.000000

 -----------------------------------------------------------------
                    Cartesian Multipole Moments
 -----------------------------------------------------------------
    Charge (ESU x 10^10)
                 0.0000
    Dipole Moment (Debye)
         X       4.1758      Y       0.0017      Z       0.5376
       Tot       4.2103
    Quadrupole Moments (Debye-Ang)
        XX     -80.5993     XY      -0.0095     YY     -64.4228
        XZ      -4.3125     YZ      -0.0020     ZZ     -65.1930
    Octopole Moments (Debye-Ang^2)
       XXX      61.4222    XXY       0.0580    XYY     -14.7515
       YYY       0.0486    XXZ      17.8757    XYZ       0.0056
       YYZ       7.3337    XZZ     -12.3145    YZZ       0.0067
       ZZZ      11.1011
    Hexadecapole Moments (Debye-Ang^3)
      XXXX   -3241.0726   XXXY      -0.5843   XXYY    -506.5185
      XYYY      -0.2859   YYYY    -341.0572   XXXZ    -131.8759
      XXYZ      -0.0422   XYYZ       1.3619   YYYZ       0.0198
      XXZZ    -505.2637   XYZZ      -0.1267   YYZZ    -104.2281
      XZZZ     -26.3527   YZZZ       0.0211   ZZZZ    -276.9502
 -----------------------------------------------------------------
 Calculating analytic gradient of the SCF energy
 Gradient of SCF Energy
            1           2           3           4           5           6
    1  -0.0005686   0.0001460  -0.0000324  -0.0000890  -0.0000889   0.0000224
    2  -0.0000017  -0.0000002   0.0000006  -0.0000241   0.0000238   0.0001681
    3  -0.0000557  -0.0000162   0.0000716   0.0000483   0.0000470   0.0001074
            7           8           9          10          11          12
    1   0.0001247   0.0000226   0.0000356  -0.0001652   0.0001836  -0.0001640
    2  -0.0000001  -0.0001677  -0.0001602  -0.0000022   0.0000598   0.0000025
    3  -0.0001941   0.0001078   0.0001189  -0.0000735  -0.0001330  -0.0000741
           13          14          15          16          17
    1   0.0000351   0.0001838   0.0009045  -0.0021175   0.0015674
    2   0.0001609  -0.0000598  -0.0000017   0.0000041  -0.0000021
    3   0.0001187  -0.0001326  -0.0013265   0.0029140  -0.0015281
 Max gradient component =       2.914E-03
 RMS gradient           =       6.434E-04
 Gradient time:  CPU 358.39 s  wall 14.94 s
 Geometry Optimization Parameters
   NAtoms,    NIC,     NZ,  NCons,   NDum,   NFix, NCnnct, MaxDiis
       17     109       0       0       0       0       0       0

 Cartesian Hessian Update
 Hessian updated using BFGS update


** GEOMETRY OPTIMIZATION IN DELOCALIZED INTERNAL COORDINATES **
   Searching for a Minimum

   Optimization Cycle:   3

                       Coordinates (Angstroms)
     ATOM                X               Y               Z
      1  H         1.1037571280    0.0010496552    1.1282244079
      2  Si        2.1719704064    0.0003853449    0.0642429692
      3  C         3.8477790030    0.0017398358    0.9212933580
      4  C         1.9512180175   -1.5491847519   -0.9839498676
      5  C         1.9503095471    1.5478122325   -0.9869279500
      6  H         3.9720017326    0.8929894569    1.5572515420
      7  H         4.6637664236    0.0012673930    0.1793681052
      8  H         3.9725573220   -0.8881801197    1.5590018566
      9  H         2.0387952906   -2.4633144544   -0.3745674067
     10  H         0.9654835990   -1.5657896434   -1.4767794552
     11  H         2.7194043355   -1.5973956711   -1.7737390915
     12  H         0.9647231664    1.5627417355   -1.4801035626
     13  H         2.0369975344    2.4631576701   -0.3792442652
     14  H         2.7187099192    1.5951235887   -1.7765636440
     15  Br       -1.5279336810   -0.0001874422    0.3782950993
     16  C        -3.2437446488   -0.0011691102   -0.1543179290
     17  N        -4.3274367783   -0.0018915168   -0.5590783577
   Point Group: c1    Number of degrees of freedom:    45


   Energy is  -3075.940303836

 Hessian updated using BFGS update

 36 Hessian modes will be used to form the next step
  Hessian Eigenvalues:
     0.002000    0.005258    0.005267    0.005405    0.016762    0.037538
     0.045799    0.045987    0.055601    0.055681    0.055964    0.056740
     0.056745    0.056889    0.145235    0.145697    0.155601    0.160002
     0.160014    0.171358    0.199283    0.213991    0.214250    0.214943
     0.272520    0.348825    0.348885    0.349074    0.349416    0.349512
     0.349746    0.349875    0.350002    0.351352    1.038356    1.203082

 Minimum search - taking simple RFO step
 Searching for Lamda that Minimizes Along All modes
 Value Taken    Lamda =  -0.00025529
 Step Taken.  Stepsize is  0.018047

                             Maximum     Tolerance    Cnvgd?
         Gradient           0.015317      0.000050      NO
         Displacement       0.014873      0.000050      NO
         Energy change      0.000106      0.000000      NO


 New Cartesian Coordinates Obtained by Inverse Iteration

 Displacement from previous Coordinates is:  0.068477
 ----------------------------------------------------------------
             Standard Nuclear Orientation (Angstroms)
    I     Atom           X                Y                Z
 ----------------------------------------------------------------
    1      H       1.1052520734     0.0012165813     1.1283606198
    2      Si      2.1728872101     0.0004546364     0.0647399031
    3      C       3.8485410465     0.0016969754     0.9213720667
    4      C       1.9517593679    -1.5487940934    -0.9832782574
    5      C       1.9510705760     1.5475602684    -0.9862994438
    6      H       3.9728080540     0.8926625564     1.5571966098
    7      H       4.6644886227     0.0011520264     0.1798493280
    8      H       3.9732293257    -0.8879387118     1.5589731077
    9      H       2.0387254455    -2.4626888585    -0.3739996481
   10      H       0.9662766842    -1.5649700118    -1.4759898461
   11      H       2.7196240456    -1.5977331689    -1.7729259766
   12      H       0.9657287537     1.5621935862    -1.4793386562
   13      H       2.0372973848     2.4626758583    -0.3787494533
   14      H       2.7191423874     1.5954574414    -1.7758098927
   15      Br     -1.5301086530    -0.0002400560     0.3745311476
   16      C      -3.2389001869    -0.0013982139    -0.1792616732
   17      N      -4.3394638203    -0.0021526129    -0.5369641268
 ----------------------------------------------------------------
 Molecular Point Group                 C1    NOp =  1
 Largest Abelian Subgroup              C1    NOp =  1
 Nuclear Repulsion Energy =         533.11149047 hartrees
 There are       45 alpha and       45 beta electrons
 Applying Cartesian multipole field
    Component          Value
    ---------          -----
     (2,0,0)        1.00000E-11
     (0,2,0)        2.00000E-11
     (0,0,2)       -3.00000E-11
 Nucleus-field energy     =     0.0000000192 hartrees
 Requested basis set is def2-SVPD
 There are 105 shells and 245 basis functions
 A cutoff of  1.0D-14 yielded   5080 shell pairs
 There are     27646 function pairs (     31376 Cartesian)
 Smallest overlap matrix eigenvalue = 1.53E-04
 Read the previous MOs as SCF guess

 -----------------------------------------------------------------------
  General SCF calculation program by
  Eric Jon Sundstrom, Paul Horn, Yuezhi Mao, Dmitri Zuev, Alec White,
  David Stuck, Shaama M.S., Shane Yost, Joonho Lee, David Small,
  Daniel Levine, Susi Lehtola, Hugh Burton, Evgeny Epifanovsky,
  Bang C. Huynh
 -----------------------------------------------------------------------
 Exchange:     0.1670 Hartree-Fock + 1.0000 wB97X-V + LR-HF
 Correlation:  1.0000 wB97X-V
 Using Euler-Maclaurin-Lebedev (75,302) quadrature formula
 Nonlocal Correlation:  VV10 with C = 0.0100 and b = 6.00 and scale = 1.00000
 Grid used for NLC:  SG-1 standard quadrature
 A restricted SCF calculation will be
 performed using DIIS
 SCF converges when DIIS error is below 1.0e-09
 ---------------------------------------
  Cycle       Energy         DIIS error
 ---------------------------------------
    1   -3075.9387972047      7.41e-04  
    2   -3075.9403272812      7.29e-05  
    3   -3075.9404249361      2.06e-05  
    4   -3075.9404366028      7.31e-06  
    5   -3075.9404371767      5.06e-06  
    6   -3075.9404373885      1.65e-06  
    7   -3075.9404374191      2.82e-07  
    8   -3075.9404374205      1.04e-07  
    9   -3075.9404374208      3.41e-08  
   10   -3075.9404374208      1.13e-08  
   11   -3075.9404374208      3.22e-09  
   12   -3075.9404374208      6.82e-10  Convergence criterion met
 ---------------------------------------
 SCF time:   CPU 437.85s  wall 19.00s 
 SCF   energy in the final basis set =    -3075.9404374208
 Total energy in the final basis set =    -3075.9404374208
 
 --------------------------------------------------------------
 
                    Orbital Energies (a.u.)
 --------------------------------------------------------------
 
 Alpha MOs
 -- Occupied --
******** -66.1361 -62.5710 -56.3945 -56.3897 -56.3896 -14.4480 -10.3731
-10.2766 -10.2762 -10.2762  -8.8673  -6.7039  -6.6867  -6.6867  -5.3908
 -3.7452  -3.7441  -3.7441  -2.8250  -2.8200  -2.8200  -2.8067  -2.8067
 -1.0606  -0.9883  -0.8519  -0.8113  -0.8110  -0.6566  -0.6048  -0.5404
 -0.5296  -0.5277  -0.5224  -0.5205  -0.5076  -0.5073  -0.4967  -0.4961
 -0.4236  -0.4230  -0.4229  -0.4172  -0.4164
 -- Virtual --
  0.0465   0.0671   0.0782   0.0808   0.0865   0.1021   0.1022   0.1159
  0.1218   0.1267   0.1461   0.1499   0.1544   0.1634   0.1661   0.1756
  0.1837   0.1863   0.1914   0.1976   0.2001   0.2047   0.2181   0.2244
  0.2296   0.2427   0.2504   0.2621   0.2736   0.2842   0.2874   0.2991
  0.3022   0.3059   0.3165   0.3212   0.3374   0.3413   0.3474   0.3583
  0.3673   0.3815   0.3845   0.3904   0.3986   0.3999   0.4041   0.4107
  0.4110   0.4209   0.4226   0.4347   0.4392   0.4429   0.4443   0.4535
  0.4708   0.4723   0.4724   0.4754   0.4774   0.4910   0.4971   0.4992
  0.5136   0.5246   0.5248   0.5344   0.5409   0.5464   0.5469   0.5565
  0.5726   0.5804   0.5910   0.5950   0.5977   0.6031   0.6033   0.6133
  0.6156   0.6208   0.6350   0.6454   0.6465   0.6606   0.6680   0.6698
  0.7011   0.7188   0.7253   0.7669   0.7770   0.8016   0.8108   0.8167
  0.8252   0.8293   0.8597   0.8996   0.9074   0.9104   0.9187   0.9328
  0.9595   0.9635   0.9872   0.9932   1.0203   1.0233   1.0421   1.0446
  1.0569   1.0618   1.0781   1.0824   1.0915   1.0925   1.1051   1.1110
  1.1286   1.1670   1.1701   1.1808   1.1909   1.2454   1.2615   1.2728
  1.2772   1.2852   1.3050   1.3138   1.3291   1.3523   1.3866   1.3929
  1.4266   1.4356   1.4853   1.6475   1.6829   1.6961   1.7162   1.7476
  1.7694   1.7866   1.8065   1.8105   1.8236   1.8439   1.8452   1.8852
  1.8874   1.9164   1.9473   2.0158   2.0183   2.0192   2.0240   2.0530
  2.0576   2.0790   2.0968   2.1275   2.1380   2.1584   2.1954   2.2094
  2.2309   2.2411   2.3327   2.4489   2.4759   2.4774   2.5374   2.5388
  2.6061   2.6099   2.6107   2.6232   2.6269   2.6393   2.8505   2.8982
  2.9035   2.9097   2.9694   2.9704   3.1776   3.1830   3.1852   3.2148
  3.2236   3.2427   3.5770   3.6370   3.6426   3.7261   3.7599   4.0185
 --------------------------------------------------------------
 
          Ground-State Mulliken Net Atomic Charges

     Atom                 Charge (a.u.)
  ----------------------------------------
      1 H                     0.224854
      2 Si                   -0.468148
      3 C                     0.233123
      4 C                     0.159484
      5 C                     0.159451
      6 H                    -0.016181
      7 H                     0.000982
      8 H                    -0.016196
      9 H                    -0.025224
     10 H                    -0.073346
     11 H                    -0.022957
     12 H                    -0.073334
     13 H                    -0.025215
     14 H                    -0.022981
     15 Br                   -0.144678
     16 C                     0.282570
     17 N                    -0.172201
  ----------------------------------------
  Sum of atomic charges =     0.000000

 -----------------------------------------------------------------
                    Cartesian Multipole Moments
 -----------------------------------------------------------------
    Charge (ESU x 10^10)
                -0.0000
    Dipole Moment (Debye)
         X       4.1891      Y       0.0019      Z       0.4953
       Tot       4.2182
    Quadrupole Moments (Debye-Ang)
        XX     -80.8016     XY      -0.0106     YY     -64.4249
        XZ      -4.1008     YZ      -0.0021     ZZ     -65.1240
    Octopole Moments (Debye-Ang^2)
       XXX      62.8428    XXY       0.0668    XYY     -14.6975
       YYY       0.0547    XXZ      17.0951    XYZ       0.0067
       YYZ       7.3995    XZZ     -12.4839    YZZ       0.0085
       ZZZ      11.2781
    Hexadecapole Moments (Debye-Ang^3)
      XXXX   -3252.6102   XXXY      -0.6693   XXYY    -507.1927
      XYYY      -0.3380   YYYY    -340.9645   XXXZ    -128.6674
      XXYZ      -0.0422   XYYZ       1.3107   YYYZ       0.0238
      XXZZ    -504.8769   XYZZ      -0.1453   YYZZ    -104.0325
      XZZZ     -26.3060   YZZZ       0.0247   ZZZZ    -275.8487
 -----------------------------------------------------------------
 Calculating analytic gradient of the SCF energy
 Gradient of SCF Energy
            1           2           3           4           5           6
    1  -0.0004096   0.0001039   0.0000202  -0.0000789  -0.0000788   0.0000042
    2  -0.0000016  -0.0000001   0.0000005  -0.0000603   0.0000599   0.0000032
    3  -0.0002490   0.0000898   0.0000919   0.0000159   0.0000149  -0.0000084
            7           8           9          10          11          12
    1  -0.0000042   0.0000043   0.0000163   0.0000044   0.0000384   0.0000054
    2   0.0000000  -0.0000030   0.0000055  -0.0000093   0.0000459   0.0000099
    3  -0.0000502  -0.0000084   0.0000043  -0.0000011  -0.0000088  -0.0000017
           13          14          15          16          17
    1   0.0000160   0.0000387   0.0004820   0.0000321  -0.0001942
    2  -0.0000051  -0.0000459   0.0000004   0.0000001  -0.0000002
    3   0.0000043  -0.0000084   0.0000133   0.0001939  -0.0000923
 Max gradient component =       4.820E-04
 RMS gradient           =       1.090E-04
 Gradient time:  CPU 357.20 s  wall 14.89 s
 Geometry Optimization Parameters
   NAtoms,    NIC,     NZ,  NCons,   NDum,   NFix, NCnnct, MaxDiis
       17     109       0       0       0       0       0       0

 Cartesian Hessian Update
 Hessian updated using BFGS update


** GEOMETRY OPTIMIZATION IN DELOCALIZED INTERNAL COORDINATES **
   Searching for a Minimum

   Optimization Cycle:   4

                       Coordinates (Angstroms)
     ATOM                X               Y               Z
      1  H         1.1052520734    0.0012165813    1.1283606198
      2  Si        2.1728872101    0.0004546364    0.0647399031
      3  C         3.8485410465    0.0016969754    0.9213720667
      4  C         1.9517593679   -1.5487940934   -0.9832782574
      5  C         1.9510705760    1.5475602684   -0.9862994438
      6  H         3.9728080540    0.8926625564    1.5571966098
      7  H         4.6644886227    0.0011520264    0.1798493280
      8  H         3.9732293257   -0.8879387118    1.5589731077
      9  H         2.0387254455   -2.4626888585   -0.3739996481
     10  H         0.9662766842   -1.5649700118   -1.4759898461
     11  H         2.7196240456   -1.5977331689   -1.7729259766
     12  H         0.9657287537    1.5621935862   -1.4793386562
     13  H         2.0372973848    2.4626758583   -0.3787494533
     14  H         2.7191423874    1.5954574414   -1.7758098927
     15  Br       -1.5301086530   -0.0002400560    0.3745311476
     16  C        -3.2389001869   -0.0013982139   -0.1792616732
     17  N        -4.3394638203   -0.0021526129   -0.5369641268
   Point Group: c1    Number of degrees of freedom:    45


   Energy is  -3075.940437421

 Hessian updated using BFGS update

 37 Hessian modes will be used to form the next step
  Hessian Eigenvalues:
     0.002000    0.005256    0.005267    0.016368    0.037538    0.045799
     0.045986    0.055591    0.055681    0.055962    0.056740    0.056745
     0.056889    0.145235    0.145688    0.155021    0.159917    0.160000
     0.160007    0.171490    0.199165    0.200000    0.213991    0.214246
     0.214876    0.272366    0.348825    0.348861    0.349041    0.349416
     0.349511    0.349746    0.349873    0.350002    0.351321    1.016281
     1.206963

 Minimum search - taking simple RFO step
 Searching for Lamda that Minimizes Along All modes
 Value Taken    Lamda =  -0.00001013
 Step Taken.  Stepsize is  0.022416

                             Maximum     Tolerance    Cnvgd?
         Gradient           0.000515      0.000050      NO
         Displacement       0.012778      0.000050      NO
         Energy change     -0.000134      0.000000      NO


 New Cartesian Coordinates Obtained by Inverse Iteration

 Displacement from previous Coordinates is:  0.036707
 ----------------------------------------------------------------
             Standard Nuclear Orientation (Angstroms)
    I     Atom           X                Y                Z
 ----------------------------------------------------------------
    1      H       1.1099230389     0.0013631992     1.1325613574
    2      Si      2.1749989574     0.0005110242     0.0664775751
    3      C       3.8525945460     0.0016593368     0.9191476267
    4      C       1.9509505312    -1.5486575734    -0.9810189871
    5      C       1.9504166568     1.5475332268    -0.9840717672
    6      H       3.9782167204     0.8925518009     1.5548147598
    7      H       4.6672720619     0.0010542206     0.1762842760
    8      H       3.9785292144    -0.8879046018     1.5566105589
    9      H       2.0379182363    -2.4625719065    -0.3717621988
   10      H       0.9644632151    -1.5639294650    -1.4717742851
   11      H       2.7170193528    -1.5990116318    -1.7722667531
   12      H       0.9640400234     1.5613756677    -1.4750920887
   13      H       2.0367997829     2.4626732601    -0.3765741023
   14      H       2.7166519072     1.5967168580    -1.7752326641
   15      Br     -1.5356330236    -0.0002733888     0.3728922627
   16      C      -3.2426623123    -0.0015491160    -0.1854155837
   17      N      -4.3431405917    -0.0023867080    -0.5431741776
 ----------------------------------------------------------------
 Molecular Point Group                 C1    NOp =  1
 Largest Abelian Subgroup              C1    NOp =  1
 Nuclear Repulsion Energy =         532.83085546 hartrees
 There are       45 alpha and       45 beta electrons
 Applying Cartesian multipole field
    Component          Value
    ---------          -----
     (2,0,0)        1.00000E-11
     (0,2,0)        2.00000E-11
     (0,0,2)       -3.00000E-11
 Nucleus-field energy     =     0.0000000193 hartrees
 Requested basis set is def2-SVPD
 There are 105 shells and 245 basis functions
 A cutoff of  1.0D-14 yielded   5080 shell pairs
 There are     27646 function pairs (     31376 Cartesian)
 Smallest overlap matrix eigenvalue = 1.53E-04
 Read the previous MOs as SCF guess

 -----------------------------------------------------------------------
  General SCF calculation program by
  Eric Jon Sundstrom, Paul Horn, Yuezhi Mao, Dmitri Zuev, Alec White,
  David Stuck, Shaama M.S., Shane Yost, Joonho Lee, David Small,
  Daniel Levine, Susi Lehtola, Hugh Burton, Evgeny Epifanovsky,
  Bang C. Huynh
 -----------------------------------------------------------------------
 Exchange:     0.1670 Hartree-Fock + 1.0000 wB97X-V + LR-HF
 Correlation:  1.0000 wB97X-V
 Using Euler-Maclaurin-Lebedev (75,302) quadrature formula
 Nonlocal Correlation:  VV10 with C = 0.0100 and b = 6.00 and scale = 1.00000
 Grid used for NLC:  SG-1 standard quadrature
 A restricted SCF calculation will be
 performed using DIIS
 SCF converges when DIIS error is below 1.0e-09
 ---------------------------------------
  Cycle       Energy         DIIS error
 ---------------------------------------
    1   -3075.9404339354      1.35e-04  
    2   -3075.9404454105      5.77e-06  
    3   -3075.9404461253      2.05e-06  
    4   -3075.9404462068      1.80e-06  
    5   -3075.9404462318      5.43e-07  
    6   -3075.9404462348      1.58e-07  
    7   -3075.9404462352      5.44e-08  
    8   -3075.9404462353      1.39e-08  
    9   -3075.9404462353      4.67e-09  
   10   -3075.9404462353      1.16e-09  
   11   -3075.9404462353      3.50e-10  Convergence criterion met
 ---------------------------------------
 SCF time:   CPU 400.96s  wall 17.00s 
 SCF   energy in the final basis set =    -3075.9404462353
 Total energy in the final basis set =    -3075.9404462353
 
 --------------------------------------------------------------
 
                    Orbital Energies (a.u.)
 --------------------------------------------------------------
 
 Alpha MOs
 -- Occupied --
******** -66.1360 -62.5711 -56.3946 -56.3898 -56.3897 -14.4481 -10.3732
-10.2765 -10.2762 -10.2761  -8.8674  -6.7040  -6.6868  -6.6868  -5.3907
 -3.7451  -3.7440  -3.7440  -2.8251  -2.8201  -2.8201  -2.8068  -2.8068
 -1.0608  -0.9884  -0.8518  -0.8113  -0.8110  -0.6566  -0.6049  -0.5403
 -0.5296  -0.5276  -0.5225  -0.5206  -0.5075  -0.5073  -0.4967  -0.4962
 -0.4236  -0.4231  -0.4229  -0.4171  -0.4164
 -- Virtual --
  0.0463   0.0672   0.0782   0.0808   0.0865   0.1020   0.1021   0.1158
  0.1219   0.1266   0.1461   0.1499   0.1543   0.1634   0.1662   0.1756
  0.1837   0.1862   0.1914   0.1977   0.2001   0.2047   0.2181   0.2243
  0.2294   0.2426   0.2504   0.2622   0.2734   0.2842   0.2874   0.2990
  0.3023   0.3059   0.3164   0.3212   0.3375   0.3413   0.3475   0.3581
  0.3674   0.3815   0.3844   0.3903   0.3984   0.4000   0.4041   0.4107
  0.4109   0.4210   0.4226   0.4347   0.4391   0.4427   0.4444   0.4536
  0.4708   0.4724   0.4724   0.4753   0.4776   0.4909   0.4970   0.4991
  0.5134   0.5244   0.5249   0.5343   0.5410   0.5465   0.5469   0.5566
  0.5726   0.5803   0.5908   0.5948   0.5975   0.6032   0.6032   0.6135
  0.6158   0.6215   0.6347   0.6452   0.6466   0.6604   0.6678   0.6696
  0.7010   0.7188   0.7252   0.7669   0.7768   0.8011   0.8107   0.8163
  0.8250   0.8291   0.8590   0.8993   0.9074   0.9102   0.9180   0.9322
  0.9595   0.9631   0.9872   0.9934   1.0205   1.0233   1.0417   1.0444
  1.0570   1.0618   1.0777   1.0824   1.0915   1.0924   1.1052   1.1110
  1.1285   1.1671   1.1698   1.1809   1.1909   1.2453   1.2608   1.2728
  1.2771   1.2846   1.3042   1.3135   1.3290   1.3522   1.3868   1.3929
  1.4260   1.4352   1.4853   1.6475   1.6829   1.6962   1.7163   1.7478
  1.7697   1.7868   1.8066   1.8105   1.8236   1.8438   1.8451   1.8850
  1.8872   1.9165   1.9472   2.0159   2.0185   2.0193   2.0240   2.0530
  2.0575   2.0791   2.0968   2.1274   2.1379   2.1583   2.1953   2.2094
  2.2311   2.2412   2.3327   2.4491   2.4762   2.4777   2.5373   2.5387
  2.6061   2.6099   2.6108   2.6232   2.6270   2.6393   2.8506   2.8982
  2.9034   2.9097   2.9694   2.9704   3.1777   3.1831   3.1854   3.2149
  3.2238   3.2429   3.5770   3.6369   3.6425   3.7259   3.7597   4.0177
 --------------------------------------------------------------
 
          Ground-State Mulliken Net Atomic Charges

     Atom                 Charge (a.u.)
  ----------------------------------------
      1 H                     0.227845
      2 Si                   -0.470534
      3 C                     0.233367
      4 C                     0.159598
      5 C                     0.159547
      6 H                    -0.016381
      7 H                     0.000369
      8 H                    -0.016396
      9 H                    -0.025043
     10 H                    -0.073573
     11 H                    -0.023441
     12 H                    -0.073528
     13 H                    -0.025038
     14 H                    -0.023455
     15 Br                   -0.144730
     16 C                     0.282876
     17 N                    -0.171481
  ----------------------------------------
  Sum of atomic charges =     0.000000

 -----------------------------------------------------------------
                    Cartesian Multipole Moments
 -----------------------------------------------------------------
    Charge (ESU x 10^10)
                 0.0000
    Dipole Moment (Debye)
         X       4.1787      Y       0.0021      Z       0.4997
       Tot       4.2085
    Quadrupole Moments (Debye-Ang)
        XX     -80.8166     XY      -0.0118     YY     -64.4273
        XZ      -4.1286     YZ      -0.0023     ZZ     -65.1369
    Octopole Moments (Debye-Ang^2)
       XXX      63.2144    XXY       0.0745    XYY     -14.6061
       YYY       0.0590    XXZ      17.3189    XYZ       0.0081
       YYZ       7.4534    XZZ     -12.3458    YZZ       0.0099
       ZZZ      11.4505
    Hexadecapole Moments (Debye-Ang^3)
      XXXX   -3259.5139   XXXY      -0.7394   XXYY    -508.0764
      XYYY      -0.3781   YYYY    -340.9813   XXXZ    -130.6381
      XXYZ      -0.0447   XYYZ       0.9071   YYYZ       0.0260
      XXZZ    -505.9460   XYZZ      -0.1601   YYZZ    -103.9547
      XZZZ     -27.5494   YZZZ       0.0264   ZZZZ    -275.4811
 -----------------------------------------------------------------
 Calculating analytic gradient of the SCF energy
 Gradient of SCF Energy
            1           2           3           4           5           6
    1  -0.0003349   0.0001137  -0.0000121  -0.0000386  -0.0000389   0.0000092
    2  -0.0000007   0.0000001   0.0000003  -0.0000078   0.0000075  -0.0000038
    3  -0.0002447   0.0001328   0.0000314   0.0000210   0.0000214  -0.0000082
            7           8           9          10          11          12
    1   0.0000030   0.0000093   0.0000105   0.0000080   0.0000107   0.0000084
    2   0.0000000   0.0000039   0.0000030  -0.0000112   0.0000130   0.0000116
    3  -0.0000142  -0.0000081  -0.0000068  -0.0000009  -0.0000074  -0.0000016
           13          14          15          16          17
    1   0.0000103   0.0000113   0.0003129  -0.0000068  -0.0000760
    2  -0.0000029  -0.0000133   0.0000002   0.0000003  -0.0000003
    3  -0.0000069  -0.0000070   0.0000361   0.0000204   0.0000427
 Max gradient component =       3.349E-04
 RMS gradient           =       7.884E-05
 Gradient time:  CPU 357.44 s  wall 14.90 s
 Geometry Optimization Parameters
   NAtoms,    NIC,     NZ,  NCons,   NDum,   NFix, NCnnct, MaxDiis
       17     109       0       0       0       0       0       0

 Cartesian Hessian Update
 Hessian updated using BFGS update


** GEOMETRY OPTIMIZATION IN DELOCALIZED INTERNAL COORDINATES **
   Searching for a Minimum

   Optimization Cycle:   5

                       Coordinates (Angstroms)
     ATOM                X               Y               Z
      1  H         1.1099230389    0.0013631992    1.1325613574
      2  Si        2.1749989574    0.0005110242    0.0664775751
      3  C         3.8525945460    0.0016593368    0.9191476267
      4  C         1.9509505312   -1.5486575734   -0.9810189871
      5  C         1.9504166568    1.5475332268   -0.9840717672
      6  H         3.9782167204    0.8925518009    1.5548147598
      7  H         4.6672720619    0.0010542206    0.1762842760
      8  H         3.9785292144   -0.8879046018    1.5566105589
      9  H         2.0379182363   -2.4625719065   -0.3717621988
     10  H         0.9644632151   -1.5639294650   -1.4717742851
     11  H         2.7170193528   -1.5990116318   -1.7722667531
     12  H         0.9640400234    1.5613756677   -1.4750920887
     13  H         2.0367997829    2.4626732601   -0.3765741023
     14  H         2.7166519072    1.5967168580   -1.7752326641
     15  Br       -1.5356330236   -0.0002733888    0.3728922627
     16  C        -3.2426623123   -0.0015491160   -0.1854155837
     17  N        -4.3431405917   -0.0023867080   -0.5431741776
   Point Group: c1    Number of degrees of freedom:    45


   Energy is  -3075.940446235

 Hessian updated using BFGS update

 40 Hessian modes will be used to form the next step
  Hessian Eigenvalues:
     0.002000    0.003926    0.005267    0.005405    0.005735    0.037535
     0.045799    0.046019    0.055512    0.055682    0.055952    0.056729
     0.056745    0.056889    0.131230    0.145235    0.145894    0.159803
     0.160000    0.160001    0.162530    0.171171    0.195200    0.200000
     0.200002    0.213991    0.214257    0.215105    0.272857    0.348825
     0.348869    0.349068    0.349416    0.349516    0.349746    0.349875
     0.350002    0.351472    1.186217    1.217435

 Minimum search - taking simple RFO step
 Searching for Lamda that Minimizes Along All modes
 Value Taken    Lamda =  -0.00002962
 Step Taken.  Stepsize is  0.081259

                             Maximum     Tolerance    Cnvgd?
         Gradient           0.000519      0.000050      NO
         Displacement       0.045467      0.000050      NO
         Energy change     -0.000009      0.000000      NO


 New Cartesian Coordinates Obtained by Inverse Iteration

 Displacement from previous Coordinates is:  0.155676
 ----------------------------------------------------------------
             Standard Nuclear Orientation (Angstroms)
    I     Atom           X                Y                Z
 ----------------------------------------------------------------
    1      H       1.1288926289     0.0015835290     1.1518673241
    2      Si      2.1821266034     0.0005939082     0.0743124307
    3      C       3.8686393896     0.0016020517     0.9089715240
    4      C       1.9456348093    -1.5484223327    -0.9707548948
    5      C       1.9452499263     1.5474502889    -0.9738559325
    6      H       4.0004640071     0.8923317522     1.5436847409
    7      H       4.6765511795     0.0009206340     0.1588523149
    8      H       4.0006329619    -0.8878194642     1.5454819342
    9      H       2.0343007080    -2.4623286655    -0.3616537973
   10      H       0.9546016495    -1.5606493279    -1.4525218688
   11      H       2.7039438393    -1.6029543600    -1.7690625309
   12      H       0.9542089114     1.5584309792    -1.4556412253
   13      H       2.0336606133     2.4625962700    -0.3665837775
   14      H       2.7035447627     1.6005883953    -1.7722714071
   15      Br     -1.5521219601    -0.0003257426     0.3671915529
   16      C      -3.2523994666    -0.0018199793    -0.2089957339
   17      N      -4.3495722463    -0.0026237332    -0.5766148449
 ----------------------------------------------------------------
 Molecular Point Group                 C1    NOp =  1
 Largest Abelian Subgroup              C1    NOp =  1
 Nuclear Repulsion Energy =         532.05107486 hartrees
 There are       45 alpha and       45 beta electrons
 Applying Cartesian multipole field
    Component          Value
    ---------          -----
     (2,0,0)        1.00000E-11
     (0,2,0)        2.00000E-11
     (0,0,2)       -3.00000E-11
 Nucleus-field energy     =     0.0000000195 hartrees
 Requested basis set is def2-SVPD
 There are 105 shells and 245 basis functions
 A cutoff of  1.0D-14 yielded   5078 shell pairs
 There are     27640 function pairs (     31370 Cartesian)
 Smallest overlap matrix eigenvalue = 1.55E-04
 Read the previous MOs as SCF guess

 -----------------------------------------------------------------------
  General SCF calculation program by
  Eric Jon Sundstrom, Paul Horn, Yuezhi Mao, Dmitri Zuev, Alec White,
  David Stuck, Shaama M.S., Shane Yost, Joonho Lee, David Small,
  Daniel Levine, Susi Lehtola, Hugh Burton, Evgeny Epifanovsky,
  Bang C. Huynh
 -----------------------------------------------------------------------
 Exchange:     0.1670 Hartree-Fock + 1.0000 wB97X-V + LR-HF
 Correlation:  1.0000 wB97X-V
 Using Euler-Maclaurin-Lebedev (75,302) quadrature formula
 Nonlocal Correlation:  VV10 with C = 0.0100 and b = 6.00 and scale = 1.00000
 Grid used for NLC:  SG-1 standard quadrature
 A restricted SCF calculation will be
 performed using DIIS
 SCF converges when DIIS error is below 1.0e-09
 ---------------------------------------
  Cycle       Energy         DIIS error
 ---------------------------------------
    1   -3075.9401796350      5.53e-04  
    2   -3075.9404444878      2.87e-05  
    3   -3075.9404613124      9.28e-06  
    4   -3075.9404632841      6.56e-06  
    5   -3075.9404635965      2.21e-06  
    6   -3075.9404636444      6.49e-07  
    7   -3075.9404636503      1.96e-07  
    8   -3075.9404636507      4.53e-08  
    9   -3075.9404636508      1.66e-08  
   10   -3075.9404636508      4.82e-09  
   11   -3075.9404636508      1.49e-09  
   12   -3075.9404636508      3.24e-10  Convergence criterion met
 ---------------------------------------
 SCF time:   CPU 439.99s  wall 18.00s 
 SCF   energy in the final basis set =    -3075.9404636508
 Total energy in the final basis set =    -3075.9404636508
 
 --------------------------------------------------------------
 
                    Orbital Energies (a.u.)
 --------------------------------------------------------------
 
 Alpha MOs
 -- Occupied --
******** -66.1356 -62.5715 -56.3950 -56.3901 -56.3901 -14.4484 -10.3737
-10.2763 -10.2760 -10.2759  -8.8678  -6.7043  -6.6872  -6.6872  -5.3904
 -3.7448  -3.7437  -3.7437  -2.8255  -2.8205  -2.8205  -2.8072  -2.8072
 -1.0612  -0.9889  -0.8516  -0.8111  -0.8108  -0.6565  -0.6049  -0.5400
 -0.5295  -0.5273  -0.5229  -0.5208  -0.5074  -0.5072  -0.4964  -0.4964
 -0.4233  -0.4233  -0.4232  -0.4170  -0.4162
 -- Virtual --
  0.0458   0.0675   0.0783   0.0808   0.0866   0.1019   0.1020   0.1156
  0.1219   0.1265   0.1462   0.1499   0.1539   0.1636   0.1664   0.1757
  0.1836   0.1860   0.1913   0.1981   0.2002   0.2047   0.2182   0.2243
  0.2290   0.2425   0.2505   0.2624   0.2726   0.2842   0.2877   0.2989
  0.3024   0.3058   0.3164   0.3210   0.3380   0.3414   0.3481   0.3572
  0.3678   0.3817   0.3844   0.3901   0.3981   0.3999   0.4040   0.4106
  0.4107   0.4215   0.4224   0.4348   0.4389   0.4420   0.4445   0.4542
  0.4710   0.4724   0.4727   0.4752   0.4785   0.4906   0.4963   0.4989
  0.5126   0.5240   0.5253   0.5343   0.5412   0.5466   0.5471   0.5572
  0.5723   0.5795   0.5897   0.5944   0.5967   0.6034   0.6036   0.6137
  0.6166   0.6236   0.6337   0.6451   0.6468   0.6596   0.6671   0.6693
  0.7008   0.7189   0.7252   0.7670   0.7757   0.7996   0.8104   0.8152
  0.8245   0.8289   0.8560   0.8981   0.9071   0.9096   0.9156   0.9303
  0.9596   0.9615   0.9866   0.9939   1.0212   1.0226   1.0398   1.0437
  1.0574   1.0612   1.0766   1.0825   1.0916   1.0924   1.1062   1.1111
  1.1275   1.1671   1.1689   1.1817   1.1909   1.2452   1.2582   1.2728
  1.2769   1.2823   1.3018   1.3130   1.3287   1.3522   1.3871   1.3932
  1.4235   1.4340   1.4849   1.6469   1.6830   1.6966   1.7168   1.7482
  1.7705   1.7873   1.8068   1.8105   1.8239   1.8434   1.8448   1.8846
  1.8868   1.9166   1.9467   2.0161   2.0190   2.0196   2.0239   2.0532
  2.0572   2.0793   2.0969   2.1272   2.1377   2.1585   2.1950   2.2092
  2.2315   2.2415   2.3328   2.4496   2.4770   2.4785   2.5370   2.5384
  2.6062   2.6100   2.6109   2.6234   2.6272   2.6395   2.8503   2.8981
  2.9030   2.9097   2.9692   2.9702   3.1780   3.1836   3.1856   3.2150
  3.2240   3.2434   3.5762   3.6368   3.6424   3.7250   3.7588   4.0146
 --------------------------------------------------------------
 
          Ground-State Mulliken Net Atomic Charges

     Atom                 Charge (a.u.)
  ----------------------------------------
      1 H                     0.238196
      2 Si                   -0.479532
      3 C                     0.233676
      4 C                     0.160156
      5 C                     0.160090
      6 H                    -0.017041
      7 H                    -0.001350
      8 H                    -0.017046
      9 H                    -0.024153
     10 H                    -0.074931
     11 H                    -0.024417
     12 H                    -0.074835
     13 H                    -0.024156
     14 H                    -0.024418
     15 Br                   -0.144698
     16 C                     0.283870
     17 N                    -0.169408
  ----------------------------------------
  Sum of atomic charges =     0.000000

 -----------------------------------------------------------------
                    Cartesian Multipole Moments
 -----------------------------------------------------------------
    Charge (ESU x 10^10)
                 0.0000
    Dipole Moment (Debye)
         X       4.1368      Y       0.0022      Z       0.5280
       Tot       4.1703
    Quadrupole Moments (Debye-Ang)
        XX     -80.8074     XY      -0.0126     YY     -64.4373
        XZ      -4.2967     YZ      -0.0026     ZZ     -65.2108
    Octopole Moments (Debye-Ang^2)
       XXX      63.7146    XXY       0.0817    XYY     -14.3570
       YYY       0.0647    XXZ      18.4374    XYZ       0.0100
       YYZ       7.6817    XZZ     -11.8263    YZZ       0.0118
       ZZZ      12.1715
    Hexadecapole Moments (Debye-Ang^3)
      XXXX   -3276.8786   XXXY      -0.8173   XXYY    -510.5105
      XYYY      -0.4284   YYYY    -341.0647   XXXZ    -140.0886
      XXYZ      -0.0485   XYYZ      -0.9177   YYYZ       0.0285
      XXZZ    -509.4901   XYZZ      -0.1794   YYZZ    -103.6831
      XZZZ     -33.3291   YZZZ       0.0280   ZZZZ    -274.1897
 -----------------------------------------------------------------
 Calculating analytic gradient of the SCF energy
 Gradient of SCF Energy
            1           2           3           4           5           6
    1  -0.0000716   0.0001442  -0.0000796   0.0000734   0.0000723   0.0000145
    2   0.0000011   0.0000003  -0.0000007   0.0001058  -0.0001052  -0.0000029
    3  -0.0001948   0.0002088  -0.0001055   0.0000240   0.0000259   0.0000086
            7           8           9          10          11          12
    1   0.0000256   0.0000147  -0.0000103  -0.0000157  -0.0000426  -0.0000163
    2  -0.0000001   0.0000030  -0.0000177  -0.0000041  -0.0000599   0.0000035
    3   0.0000507   0.0000088  -0.0000150  -0.0000003  -0.0000110  -0.0000002
           13          14          15          16          17
    1  -0.0000102  -0.0000419  -0.0000906   0.0000303   0.0000037
    2   0.0000171   0.0000596   0.0000038  -0.0000089   0.0000051
    3  -0.0000152  -0.0000112  -0.0000332  -0.0000711   0.0001309
 Max gradient component =       2.088E-04
 RMS gradient           =       6.389E-05
 Gradient time:  CPU 357.08 s  wall 14.88 s
 Geometry Optimization Parameters
   NAtoms,    NIC,     NZ,  NCons,   NDum,   NFix, NCnnct, MaxDiis
       17     109       0       0       0       0       0       0

 Cartesian Hessian Update
 Hessian updated using BFGS update


** GEOMETRY OPTIMIZATION IN DELOCALIZED INTERNAL COORDINATES **
   Searching for a Minimum

   Optimization Cycle:   6

                       Coordinates (Angstroms)
     ATOM                X               Y               Z
      1  H         1.1288926289    0.0015835290    1.1518673241
      2  Si        2.1821266034    0.0005939082    0.0743124307
      3  C         3.8686393896    0.0016020517    0.9089715240
      4  C         1.9456348093   -1.5484223327   -0.9707548948
      5  C         1.9452499263    1.5474502889   -0.9738559325
      6  H         4.0004640071    0.8923317522    1.5436847409
      7  H         4.6765511795    0.0009206340    0.1588523149
      8  H         4.0006329619   -0.8878194642    1.5454819342
      9  H         2.0343007080   -2.4623286655   -0.3616537973
     10  H         0.9546016495   -1.5606493279   -1.4525218688
[...]
 Frequency:       717.28                 719.33                 838.98
 Force Cnst:      0.8384                 0.8393                 0.5932
 Red. Mass:       2.7659                 2.7530                 1.4303
 IR Active:          YES                    YES                    YES
 IR Intens:        8.970                  9.229                 19.305
 Raman Active:       YES                    YES                    YES
               X      Y      Z        X      Y      Z        X      Y      Z
 H          0.000  0.299  0.000   -0.238 -0.000  0.192    0.000 -0.322 -0.000
 Si         0.000  0.153  0.000   -0.120  0.000  0.096    0.000 -0.063 -0.000
 C         -0.000  0.078  0.000    0.232  0.000 -0.092   -0.000  0.114  0.000
 C         -0.063 -0.157  0.140   -0.024  0.134 -0.028   -0.075  0.040 -0.024
 C          0.063 -0.157 -0.140   -0.024 -0.134 -0.028    0.075  0.040  0.024
 H          0.282 -0.078 -0.128    0.332 -0.014 -0.091    0.388 -0.111 -0.182
 H         -0.000 -0.109 -0.000    0.250  0.000 -0.098   -0.000 -0.178 -0.000
 H         -0.282 -0.078  0.128    0.332  0.014 -0.091   -0.388 -0.111  0.182
 H          0.017 -0.105  0.068    0.129  0.318 -0.272    0.138  0.101 -0.065
 H         -0.035 -0.387  0.211    0.001 -0.126  0.005    0.011 -0.235  0.167
 H         -0.014 -0.248  0.106    0.091  0.069 -0.126    0.146  0.218 -0.184
 H          0.035 -0.387 -0.211    0.001  0.126  0.005   -0.011 -0.235 -0.167
 H         -0.017 -0.105 -0.068    0.129 -0.318 -0.272   -0.138  0.101  0.065
 H          0.014 -0.248 -0.106    0.091 -0.069 -0.126   -0.146  0.218  0.184
 Br        -0.000  0.000  0.000    0.000 -0.000 -0.000   -0.000  0.000  0.000
 C          0.000 -0.001 -0.000    0.000 -0.000  0.001   -0.000 -0.000 -0.000
 N          0.000  0.000  0.000   -0.000  0.000 -0.000   -0.000  0.000  0.000
 TransDip   0.000  0.096  0.000   -0.076  0.000  0.061    0.000 -0.141 -0.000

 Mode:                22                     23                     24
 Frequency:       840.70                 859.34                 915.86
 Force Cnst:      0.6103                 0.6895                 0.6521
 Red. Mass:       1.4656                 1.5846                 1.3194
 IR Active:          YES                    YES                    YES
 IR Intens:       26.096                 65.576                160.237
 Raman Active:       YES                    YES                    YES
               X      Y      Z        X      Y      Z        X      Y      Z
 H          0.224  0.000 -0.188   -0.047  0.000 -0.059    0.000  0.814  0.000
 Si         0.051  0.000 -0.048   -0.064  0.000 -0.067   -0.000 -0.082 -0.000
 C         -0.058 -0.000 -0.038    0.053 -0.000  0.091    0.000  0.052  0.000
 C         -0.045  0.044  0.092    0.076  0.014  0.066    0.029  0.043  0.044
 C         -0.045 -0.044  0.092    0.076 -0.014  0.066   -0.029  0.043 -0.044
 H          0.071  0.021  0.040   -0.224 -0.044 -0.073    0.154 -0.051 -0.088
 H         -0.270  0.000  0.150    0.406  0.000 -0.234   -0.000 -0.094 -0.000
 H          0.071 -0.021  0.040   -0.224  0.044 -0.073   -0.154 -0.051  0.088
 H          0.120  0.304 -0.286   -0.111  0.116 -0.151    0.004  0.182 -0.182
 H         -0.037 -0.355  0.072   -0.041  0.121 -0.224   -0.028  0.014 -0.121
 H          0.052 -0.248 -0.001   -0.136 -0.371  0.196   -0.020 -0.187  0.061
 H         -0.037  0.355  0.072   -0.041 -0.121 -0.224    0.028  0.014  0.121
 H          0.120 -0.304 -0.286   -0.111 -0.116 -0.151   -0.004  0.182  0.182
 H          0.052  0.248 -0.001   -0.136  0.371  0.196    0.020 -0.187 -0.061
 Br        -0.000 -0.000 -0.000    0.000 -0.000 -0.000    0.000 -0.000 -0.000
 C         -0.000  0.000  0.000   -0.001 -0.000 -0.001   -0.000  0.001  0.000
 N         -0.000 -0.000  0.000   -0.000  0.000  0.000    0.000 -0.000 -0.000
 TransDip   0.116  0.000 -0.115   -0.179  0.000 -0.187   -0.000 -0.405 -0.000

 Mode:                25                     26                     27
 Frequency:       929.94                1272.07                1272.49
 Force Cnst:      0.6484                 1.2231                 1.2252
 Red. Mass:       1.2725                 1.2829                 1.2842
 IR Active:          YES                    YES                    YES
 IR Intens:      153.505                 42.671                 42.938
 Raman Active:       YES                    YES                    YES
               X      Y      Z        X      Y      Z        X      Y      Z
 H          0.656  0.000 -0.530    0.000 -0.019 -0.000   -0.016 -0.000  0.012
 Si        -0.056 -0.000  0.049   -0.000  0.016  0.000    0.012  0.000 -0.010
 C         -0.012  0.000 -0.071    0.000 -0.004 -0.000   -0.117 -0.000  0.045
 C          0.051 -0.004 -0.005   -0.018 -0.092  0.059   -0.014 -0.053  0.038
 C          0.051  0.004 -0.005    0.018 -0.092 -0.059   -0.014  0.053  0.037
 H          0.200  0.018  0.023   -0.001  0.003  0.008    0.417 -0.172 -0.051
 H         -0.202 -0.000  0.108   -0.000  0.016  0.000    0.322  0.000 -0.328
 H          0.200 -0.018  0.023    0.000  0.002 -0.008    0.417  0.172 -0.051
 H         -0.084 -0.030  0.008    0.093  0.195 -0.337    0.065  0.122 -0.201
 H          0.003  0.185 -0.110   -0.101  0.352 -0.167   -0.066  0.204 -0.106
 H         -0.075 -0.050  0.085    0.180  0.353 -0.084    0.121  0.203 -0.061
 H          0.003 -0.185 -0.110    0.101  0.352  0.168   -0.066 -0.203 -0.106
 H         -0.084  0.030  0.008   -0.093  0.196  0.337    0.065 -0.121 -0.200
 H         -0.075  0.050  0.085   -0.180  0.354  0.084    0.121 -0.202 -0.061
 Br        -0.000 -0.000  0.001   -0.000 -0.000 -0.000    0.000 -0.000  0.000
 C         -0.001 -0.000 -0.002    0.000  0.000  0.000   -0.000  0.000 -0.000
 N          0.000  0.000  0.000   -0.000 -0.000 -0.000    0.000 -0.000  0.000
 TransDip  -0.302 -0.000  0.257   -0.000  0.209  0.000    0.162  0.000 -0.134

 Mode:                28                     29                     30
 Frequency:      1279.53                1425.13                1426.95
 Force Cnst:      1.2039                 1.2588                 1.2594
 Red. Mass:       1.2480                 1.0519                 1.0498
 IR Active:          YES                    YES                    YES
 IR Intens:        7.846                  0.000                  0.047
 Raman Active:       YES                    YES                    YES
               X      Y      Z        X      Y      Z        X      Y      Z
 H          0.010  0.000  0.013   -0.000 -0.002  0.000    0.000 -0.010 -0.000
 Si         0.003 -0.000  0.003    0.000 -0.000 -0.000   -0.000 -0.000  0.000
 C         -0.084 -0.000  0.029   -0.000 -0.039 -0.000   -0.000 -0.009 -0.000
 C          0.013  0.068 -0.047   -0.018  0.019  0.023    0.039  0.005  0.017
 C          0.013 -0.068 -0.047    0.018  0.019 -0.023   -0.039  0.005 -0.017
 H          0.317 -0.123 -0.033    0.244  0.033  0.169    0.062  0.008  0.040
 H          0.240  0.000 -0.245    0.000  0.454  0.000    0.000  0.112  0.000
 H          0.317  0.123 -0.033   -0.244  0.033 -0.169   -0.062  0.008 -0.040
 H         -0.069 -0.161  0.272    0.072 -0.087  0.197   -0.494 -0.016 -0.093
 H          0.083 -0.277  0.145   -0.125 -0.004 -0.283   -0.040 -0.331 -0.193
 H         -0.149 -0.279  0.070    0.285 -0.162 -0.225    0.005  0.286  0.048
 H          0.083  0.276  0.145    0.125 -0.004  0.283    0.040 -0.331  0.193
 H         -0.069  0.161  0.272   -0.072 -0.087 -0.197    0.494 -0.016  0.093
 H         -0.148  0.279  0.070   -0.285 -0.162  0.225   -0.005  0.286 -0.048
 Br        -0.000  0.000 -0.000    0.000 -0.000 -0.000    0.000 -0.000  0.000
 C          0.000  0.000  0.000   -0.000  0.000  0.000   -0.000  0.000 -0.000
 N         -0.000 -0.000  0.000    0.000 -0.000 -0.000    0.000  0.000 -0.000
 TransDip   0.062 -0.000  0.065   -0.000 -0.000  0.000    0.000 -0.007 -0.000

 Mode:                31                     32                     33
 Frequency:      1427.28                1436.98                1437.48
 Force Cnst:      1.2596                 1.2727                 1.2736
 Red. Mass:       1.0494                 1.0461                 1.0461
 IR Active:          YES                    YES                    YES
 IR Intens:        0.047                  3.354                  3.311
 Raman Active:       YES                    YES                    YES
               X      Y      Z        X      Y      Z        X      Y      Z
 H         -0.008  0.000  0.007    0.000  0.030 -0.000    0.024 -0.000 -0.020
 Si        -0.000 -0.000  0.001   -0.000 -0.008  0.000   -0.006  0.000  0.005
 C         -0.015  0.000 -0.044    0.000 -0.044  0.000    0.008  0.000  0.015
 C          0.008  0.015  0.023    0.006 -0.014 -0.022   -0.031  0.017  0.015
 C          0.008 -0.015  0.023   -0.006 -0.014  0.022   -0.031 -0.017  0.015
 H          0.015  0.291  0.394    0.311  0.039  0.204   -0.011 -0.110 -0.151
 H          0.180 -0.000 -0.202   -0.000  0.555  0.000   -0.077 -0.000  0.085
 H          0.015 -0.291  0.394   -0.311  0.039 -0.204   -0.011  0.110 -0.151
 H         -0.197 -0.068  0.086    0.041  0.076 -0.139    0.266 -0.094  0.253
 H         -0.101 -0.163 -0.283    0.110  0.059  0.271   -0.114  0.132 -0.226
 H          0.191  0.034 -0.125   -0.233  0.065  0.172    0.294 -0.285 -0.253
 H         -0.101  0.163 -0.283   -0.110  0.059 -0.271   -0.114 -0.132 -0.226
 H         -0.197  0.068  0.086   -0.040  0.076  0.140    0.266  0.094  0.253
 H          0.191 -0.034 -0.125    0.233  0.065 -0.172    0.294  0.285 -0.252
 Br         0.000  0.000  0.000    0.000  0.000  0.000    0.000 -0.000  0.000
 C         -0.000 -0.000 -0.000   -0.000 -0.000 -0.000   -0.000 -0.000 -0.000
 N          0.000  0.000 -0.000    0.000  0.000 -0.000    0.000  0.000 -0.000
 TransDip  -0.007  0.000  0.001    0.000  0.059 -0.000    0.045 -0.000 -0.038

 Mode:                34                     35                     36
 Frequency:      1443.59                2186.20                2383.66
 Force Cnst:      1.2817                 2.9265                42.6800
 Red. Mass:       1.0439                 1.0392                12.7493
 IR Active:          YES                    YES                    YES
 IR Intens:       10.444                162.601                 24.093
 Raman Active:       YES                    YES                    YES
               X      Y      Z        X      Y      Z        X      Y      Z
 H         -0.005 -0.000 -0.005    0.630 -0.000  0.776    0.000  0.000  0.000
 Si        -0.006  0.000 -0.007   -0.021  0.000 -0.027   -0.000  0.000  0.000
 C         -0.010  0.000 -0.032   -0.000  0.000 -0.001    0.000  0.000 -0.000
 C         -0.024 -0.009 -0.018   -0.000 -0.000 -0.000    0.000 -0.000  0.000
 C         -0.024  0.009 -0.018   -0.000  0.000 -0.000    0.000  0.000  0.000
 H          0.003  0.234  0.315   -0.001  0.003 -0.001   -0.000 -0.000  0.000
 H          0.152 -0.000 -0.166   -0.009 -0.000  0.002    0.000  0.000 -0.000
 H          0.003 -0.234  0.315   -0.001 -0.003 -0.001   -0.000  0.000  0.000
 H          0.372  0.046  0.005    0.001 -0.001 -0.003    0.000  0.000  0.000
 H          0.069  0.271  0.237   -0.003  0.002 -0.000   -0.001  0.001 -0.002
 H         -0.095 -0.185  0.036    0.000  0.006 -0.006    0.001 -0.000 -0.001
 H          0.069 -0.271  0.237   -0.003 -0.002 -0.000   -0.001 -0.001 -0.002
 H          0.372 -0.046  0.005    0.001  0.001 -0.003    0.000 -0.000  0.000
 H         -0.095  0.185  0.036    0.000 -0.006 -0.006    0.001  0.000 -0.001
 Br         0.000  0.000  0.000   -0.000  0.000  0.000   -0.012 -0.000  0.006
 C         -0.000  0.000 -0.000   -0.000 -0.000 -0.000    0.714  0.000 -0.348
 N         -0.000 -0.000  0.000   -0.000 -0.000  0.000   -0.546 -0.000  0.266
 TransDip   0.066 -0.000  0.079   -0.253  0.000 -0.321    0.141 -0.000 -0.070

 Mode:                37                     38                     39
 Frequency:      3047.24                3047.46                3048.41
 Force Cnst:      5.6739                 5.6754                 5.6781
 Red. Mass:       1.0371                 1.0372                 1.0371
 IR Active:          YES                    YES                    YES
 IR Intens:        3.147                  5.660                  4.750
 Raman Active:       YES                    YES                    YES
               X      Y      Z        X      Y      Z        X      Y      Z
 H          0.000  0.000  0.001    0.000 -0.001  0.000   -0.001 -0.000  0.000
 Si         0.000 -0.000 -0.001    0.000  0.001 -0.000    0.001  0.000 -0.000
 C          0.005 -0.000 -0.002    0.000  0.000 -0.000   -0.049 -0.000  0.014
 C         -0.005 -0.029  0.021   -0.005 -0.029  0.022   -0.000 -0.003  0.002
 C         -0.005  0.029  0.021    0.005 -0.029 -0.021   -0.000  0.003  0.002
 H         -0.011 -0.051  0.035   -0.001 -0.003  0.002    0.088  0.453 -0.311
 H         -0.042  0.000 -0.050   -0.000  0.000 -0.000    0.390 -0.000  0.461
 H         -0.011  0.051  0.036    0.001 -0.003 -0.002    0.088 -0.453 -0.311
 H         -0.058  0.324  0.220   -0.058  0.322  0.221   -0.007  0.038  0.026
 H          0.373  0.000 -0.133    0.379 -0.000 -0.135    0.038 -0.001 -0.013
 H         -0.262  0.011 -0.329   -0.266  0.011 -0.334   -0.030  0.001 -0.038
 H          0.374 -0.000 -0.134   -0.378 -0.000  0.135    0.038  0.001 -0.013
 H         -0.058 -0.325  0.221    0.058  0.322 -0.220   -0.007 -0.038  0.026
 H         -0.263 -0.011 -0.330    0.265  0.011  0.333   -0.030 -0.001 -0.038
 Br        -0.000  0.000 -0.000   -0.000  0.000 -0.000    0.000  0.000  0.000
 C         -0.000 -0.000 -0.000   -0.000  0.000 -0.000    0.000  0.000 -0.000
 N          0.000  0.000  0.000    0.000 -0.000  0.000   -0.000 -0.000  0.000
 TransDip   0.000  0.000  0.057    0.000 -0.076  0.000   -0.066 -0.000  0.022

 Mode:                40                     41                     42
 Frequency:      3138.39                3139.15                3140.83
 Force Cnst:      6.3928                 6.3949                 6.4005
 Red. Mass:       1.1016                 1.1014                 1.1012
 IR Active:          YES                    YES                    YES
 IR Intens:        0.708                  7.707                 20.002
 Raman Active:       YES                    YES                    YES
               X      Y      Z        X      Y      Z        X      Y      Z
 H          0.000  0.001  0.000    0.002 -0.000  0.004    0.005 -0.000  0.005
 Si        -0.000  0.000 -0.000   -0.000  0.000 -0.000   -0.001  0.000 -0.001
 C          0.000 -0.003  0.000    0.014 -0.000  0.040   -0.026  0.000 -0.077
 C          0.054  0.013  0.034   -0.044 -0.016 -0.035   -0.028 -0.003 -0.012
 C         -0.054  0.013 -0.034   -0.044  0.016 -0.035   -0.028  0.003 -0.012
 H          0.004  0.021 -0.015    0.038  0.161 -0.105   -0.073 -0.310  0.203
 H         -0.000 -0.001 -0.000   -0.236  0.000 -0.266    0.465 -0.000  0.518
 H         -0.004  0.021  0.015    0.038 -0.161 -0.105   -0.073  0.310  0.203
 H          0.040 -0.178 -0.111   -0.043  0.207  0.131   -0.011  0.039  0.023
 H         -0.353 -0.005  0.140    0.266  0.003 -0.108    0.202  0.004 -0.078
 H         -0.336  0.026 -0.438    0.305 -0.025  0.395    0.150 -0.012  0.198
 H          0.353 -0.005 -0.140    0.266 -0.003 -0.107    0.202 -0.004 -0.078
 H         -0.040 -0.178  0.111   -0.043 -0.207  0.131   -0.011 -0.039  0.023
 H          0.336  0.026  0.438    0.305  0.025  0.395    0.150  0.012  0.198
 Br        -0.000  0.000  0.000   -0.000 -0.000  0.000   -0.000  0.000  0.000
 C          0.000 -0.000 -0.000    0.000  0.000 -0.000    0.000  0.000 -0.000
 N         -0.000  0.000  0.000   -0.000 -0.000  0.000   -0.000 -0.000  0.000
 TransDip  -0.000  0.027 -0.000   -0.082 -0.000 -0.033   -0.090  0.000 -0.111

 Mode:                43                     44                     45
 Frequency:      3143.19                3143.65                3145.46
 Force Cnst:      6.4131                 6.4141                 6.4222
 Red. Mass:       1.1017                 1.1016                 1.1017
 IR Active:          YES                    YES                    YES
 IR Intens:        3.305                 14.603                 11.940
 Raman Active:       YES                    YES                    YES
               X      Y      Z        X      Y      Z        X      Y      Z
 H          0.000  0.001 -0.000   -0.000  0.000  0.002    0.000  0.002  0.000
 Si        -0.000 -0.000  0.000    0.000 -0.000 -0.001   -0.000 -0.001 -0.000
 C          0.000  0.016  0.000   -0.004  0.000 -0.012   -0.000 -0.091 -0.000
 C          0.035 -0.035 -0.041    0.038 -0.034 -0.040    0.004 -0.007 -0.008
 C         -0.035 -0.035  0.041    0.038  0.034 -0.040   -0.004 -0.007  0.008
 H         -0.022 -0.098  0.070   -0.012 -0.050  0.034    0.126  0.554 -0.396
 H         -0.000  0.003 -0.000    0.069 -0.000  0.076    0.000 -0.015  0.000
 H          0.022 -0.098 -0.070   -0.012  0.050  0.033   -0.126  0.554  0.396
 H         -0.071  0.445  0.286   -0.069  0.436  0.280   -0.014  0.088  0.056
 H         -0.408 -0.014  0.146   -0.430 -0.015  0.155   -0.057 -0.002  0.020
 H          0.060 -0.009  0.062    0.046 -0.009  0.044    0.022 -0.003  0.025
 H          0.408 -0.014 -0.146   -0.430  0.015  0.155    0.057 -0.002 -0.020
 H          0.071  0.446 -0.286   -0.069 -0.436  0.280    0.014  0.088 -0.056
 H         -0.060 -0.009 -0.062    0.046  0.009  0.044   -0.022 -0.003 -0.025
 Br        -0.000 -0.000  0.000    0.000 -0.000 -0.000    0.000 -0.000 -0.000
 C          0.000 -0.000 -0.000   -0.000 -0.000  0.000   -0.000  0.000  0.000
 N         -0.000  0.000  0.000    0.000  0.000 -0.000    0.000  0.000 -0.000
 TransDip  -0.000 -0.058  0.000    0.074 -0.000 -0.097    0.000 -0.111 -0.000

 STANDARD THERMODYNAMIC QUANTITIES AT   298.15 K  AND     1.00 ATM

   This Molecule has  0 Imaginary Frequencies
   Zero point vibrational energy:       79.918 kcal/mol

   Atom    1 Element H  Has Mass    1.00783
   Atom    2 Element Si Has Mass   27.97693
   Atom    3 Element C  Has Mass   12.00000
   Atom    4 Element C  Has Mass   12.00000
   Atom    5 Element C  Has Mass   12.00000
   Atom    6 Element H  Has Mass    1.00783
   Atom    7 Element H  Has Mass    1.00783
   Atom    8 Element H  Has Mass    1.00783
   Atom    9 Element H  Has Mass    1.00783
   Atom   10 Element H  Has Mass    1.00783
   Atom   11 Element H  Has Mass    1.00783
   Atom   12 Element H  Has Mass    1.00783
   Atom   13 Element H  Has Mass    1.00783
   Atom   14 Element H  Has Mass    1.00783
   Atom   15 Element Br Has Mass   78.91830
   Atom   16 Element C  Has Mass   12.00000
   Atom   17 Element N  Has Mass   14.00307
   Molecular Mass:   178.976600 amu
   Principal axes and moments of inertia in amu*Bohr^2:
                             1           2           3
    Eigenvalues --      546.92635  4354.46671  4389.22270
          X               0.99999     0.00000    -0.00410
          Y              -0.00000     1.00000     0.00009
          Z               0.00410    -0.00009     0.99999
   Rotational Symmetry Number is   1
   The Molecule is an Asymmetric Top
   Translational Enthalpy:        0.889 kcal/mol
   Rotational Enthalpy:           0.889 kcal/mol
   Vibrational Enthalpy:         86.155 kcal/mol
   gas constant (RT):             0.592 kcal/mol
   Translational Entropy:        41.453  cal/mol.K
   Rotational Entropy:           30.725  cal/mol.K
   Vibrational Entropy:          49.279  cal/mol.K

   Total Enthalpy:               88.525 kcal/mol
   Total Entropy:               121.458  cal/mol.K
 Total job time:  5194.92s(wall), 16501.33s(cpu) 
 Sat Nov 18 20:27:46 2023

        *************************************************************
        *                                                           *
        *  Thank you very much for using Q-Chem.  Have a nice day.  *
        *                                                           *
        *************************************************************


