
Running Job 1 of 6 Me3SiH_ICN_adiabatic_eda.in
qchem Me3SiH_ICN_adiabatic_eda.in_3095912.0 /scratch/qchem_scratch/qchem3095912/ 0
/opt/qchem/6.0.2/exe/qcprog.exe_s Me3SiH_ICN_adiabatic_eda.in_3095912.0 /scratch/qchem_scratch/qchem3095912/
                  Welcome to Q-Chem
     A Quantum Leap Into The Future Of Chemistry


 Q-Chem 6.0, Q-Chem, Inc., Pleasanton, CA (2022)

 E. Epifanovsky,  A. T. B. Gilbert,  Xintian Feng,  Joonho Lee,  Yuezhi Mao,  
 N. Mardirossian,  P. Pokhilko,  A. White,  M. Wormit,  M. P. Coons,  
 A. L. Dempwolff,  Zhengting Gan,  D. Hait,  P. R. Horn,  L. D. Jacobson,  
 I. Kaliman,  J. Kussmann,  A. W. Lange,  Ka Un Lao,  D. S. Levine,  Jie Liu,  
 S. C. McKenzie,  A. F. Morrison,  K. Nanda,  F. Plasser,  D. R. Rehn,  
 M. L. Vidal,  Zhi-Qiang You,  Ying Zhu,  B. Alam,  B. Albrecht,  
 A. Aldossary,  E. Alguire,  J. H. Andersen,  V. Athavale,  D. Barton,  
 K. Begam,  A. Behn,  N. Bellonzi,  Y. A. Bernard,  E. J. Berquist,  
 H. Burton,  A. Carreras,  K. Carter-Fenk,  Romit Chakraborty,  
 Chandrima Chakravarty,  Junhan Chen,  A. D. Chien,  K. D. Closser,  
 V. Cofer-Shabica,  L. Cunha,  S. Dasgupta,  Jia Deng,  M. de Wergifosse,  
 M. Diedenhofen,  Hainam Do,  S. Ehlert,  Po-Tung Fang,  S. Fatehi,  
 Qingguo Feng,  T. Friedhoff,  B. Ganoe,  J. Gayvert,  Qinghui Ge,  
 G. Gidofalvi,  M. Goldey,  J. Gomes,  C. Gonzalez-Espinoza,  S. Gulania,  
 A. Gunina,  J. A. Gyamfi,  M. W. D. Hanson-Heine,  P. H. P. Harbach,  
 A. W. Hauser,  M. F. Herbst,  M. Hernandez Vera,  M. Hodecker,  
 Z. C. Holden,  S. Houck,  Xunkun Huang,  Kerwin Hui,  B. C. Huynh,  
 K. Ikeda,  M. Ivanov,  Hyunjun Ji,  Zuxin Jin,  Hanjie Jiang,  B. Kaduk,  
 S. Kaehler,  R. Kang,  K. Khistyaev,  Jaehoon Kim,  Yongbin Kim,  
 P. Klunzinger,  Z. Koczor-Benda,  Joong Hoon Koh,  D. Kosenkov,  
 Saikiran Kotaru,  L. Koulias,  T. Kowalczyk,  C. M. Krauter,  K. Kue,  
 A. Kunitsa,  T. Kus,  A. Landau,  K. V. Lawler,  D. Lefrancois,  S. Lehtola,  
 Rain Li,  Shaozhi Li,  Yi-Pei Li,  Jiashu Liang,  M. Liebenthal,  
 Hung-Hsuan Lin,  You-Sheng Lin,  Fenglai Liu,  Kuan-Yu Liu,  
 M. Loipersberger,  A. Luenser,  C. Malbon,  A. Manjanath,  P. Manohar,  
 E. Mansoor,  S. F. Manzer,  Shan-Ping Mao,  A. V. Marenich,  T. Markovich,  
 S. Mason,  F. Matz,  S. A. Maurer,  P. F. McLaughlin,  M. F. S. J. Menger,  
 J.-M. Mewes,  S. A. Mewes,  P. Morgante,  Mohammad Mostafanejad,  
 J. W. Mullinax,  K. J. Oosterbaan,  G. Paran,  V. Parravicini,  
 Alexander C. Paul,  Suranjan K. Paul,  F. Pavosevic,  Zheng Pei,  S. Prager,  
 E. I. Proynov,  E. Ramos,  B. Rana,  A. E. Rask,  A. Rettig,  R. M. Richard,  
 F. Rob,  E. Rossomme,  T. Scheele,  M. Scheurer,  M. Schneider,  
 P. E. Schneider,  N. Sergueev,  S. M. Sharada,  Hengyuan Shen,  
 W. Skomorowski,  D. W. Small,  C. J. Stein,  Yingli Su,  Yu-Chuan Su,  
 E. J. Sundstrom,  Zhen Tao,  J. Thirman,  Hung-Yi Tsai,  T. Tsuchimochi,  
 N. M. Tubman,  C. Utku,  S. P. Veccham,  O. Vydrov,  J. Wenzel,  
 Jonathan Wong,  J. Witte,  A. Yamada,  Chou-Hsun Yang,  Kun Yao,  
 S. Yeganeh,  S. R. Yost,  A. Zech,  F. Zeller,  Igor Ying Zhang,  
 Xing Zhang,  Yu Zhang,  D. Zuev,  A. Aspuru-Guzik,  A. T. Bell,  
 N. A. Besley,  K. B. Bravaya,  B. R. Brooks,  D. Casanova,  Jeng-Da Chai,  
 Hsing-Ta Chen,  S. Coriani,  C. J. Cramer,  A. E. DePrince, III,  
 R. A. DiStasio Jr.,  A. Dreuw,  B. D. Dunietz,  T. R. Furlani,  
 W. A. Goddard III,  S. Grimme,  S. Hammes-Schiffer,  T. Head-Gordon,  
 W. J. Hehre,  Chao-Ping Hsu,  T.-C. Jagau,  Yousung Jung,  A. Klamt,  
 Jing Kong,  D. S. Lambrecht,  Xiangyuan Li,  WanZhen Liang,  N. J. Mayhall,  
 C. W. McCurdy,  J. B. Neaton,  T. Neudecker,  C. Ochsenfeld,  
 J. A. Parkhill,  R. Peverati,  V. A. Rassolov,  Haisheng Ren,  Yihan Shao,  
 L. V. Slipchenko,  R. P. Steele,  J. E. Subotnik,  A. J. W. Thom,  
 A. Tkatchenko,  D. G. Truhlar,  T. Van Voorhis,  Fan Wang,  
 T. A. Wesolowski,  K. B. Whaley,  H. L. Woodcock III,  P. M. Zimmerman,  
 S. Faraji,  P. M. W. Gill,  M. Head-Gordon,  J. M. Herbert,  A. I. Krylov

 Contributors to earlier versions of Q-Chem not listed above: 
 R. D. Adamson,  B. Austin,  R. Baer,  J. Baker,  G. J. O. Beran,  
 K. Brandhorst,  S. T. Brown,  E. F. C. Byrd,  Arup K. Chakraborty,  
 G. K. L. Chan,  Chun-Min Chang,  Yunqing Chen,  C.-L. Cheng,  
 Siu Hung Chien,  D. M. Chipman,  D. L. Crittenden,  H. Dachsel,  
 R. J. Doerksen,  A. D. Dutoi,  R. G. Edgar,  J. Fosso-Tande,  
 L. Fusti-Molnar,  D. Ghosh,  A. Ghysels,  A. Golubeva-Zadorozhnaya,  
 J. Gonthier,  M. S. Gordon,  S. R. Gwaltney,  G. Hawkins,  J. E. Herr,  
 A. Heyden,  S. Hirata,  E. G. Hohenstein,  G. Kedziora,  F. J. Keil,  
 C. Kelley,  Jihan Kim,  R. A. King,  R. Z. Khaliullin,  P. P. Korambath,  
 W. Kurlancheek,  A. Laurent,  A. M. Lee,  M. S. Lee,  S. V. Levchenko,  
 Ching Yeh Lin,  D. Liotard,  E. Livshits,  R. C. Lochan,  I. Lotan,  
 L. A. Martinez-Martinez,  P. E. Maslen,  N. Nair,  D. P. O'Neill,  
 D. Neuhauser,  E. Neuscamman,  C. M. Oana,  R. Olivares-Amaya,  R. Olson,  
 T. M. Perrine,  B. Peters,  P. A. Pieniazek,  A. Prociuk,  Y. M. Rhee,  
 J. Ritchie,  M. A. Rohrdanz,  E. Rosta,  N. J. Russ,  H. F. Schaefer III,  
 M. W. Schmidt,  N. E. Schultz,  S. Sharma,  N. Shenvi,  C. D. Sherrill,  
 A. C. Simmonett,  A. Sodt,  T. Stein,  D. Stuck,  K. S. Thanthiriwatte,  
 V. Vanovschi,  L. Vogt,  Tao Wang,  A. Warshel,  M. A. Watson,  
 C. F. Williams,  Q. Wu,  X. Xu,  Jun Yang,  W. Zhang,  Yan Zhao

   Please cite Q-Chem as follows:
  "Software for the frontiers of quantum chemistry:
   An overview of developments in the Q-Chem 5 package"
   J. Chem. Phys. 155, 084801 (2021)
   https://doi.org/10.1063/5.0055522 (open access)

 Q-Chem 6.0.2 for Intel X86 EM64T Linux

 Parts of Q-Chem use Armadillo 9.900.5 (Nocturnal Misbehaviour).
 http://arma.sourceforge.net/

 Q-Chem begins on Thu Feb  8 22:33:11 2024  

 Host: 
0

     Scratch files written to /scratch/qchem_scratch/qchem3095912//
 Dec722 |scratch|qcdevops|jenkins|workspace|build_RNUM 8907   
 Processing $rem in /opt/qchem/6.0.2/config/preferences:
 Processing $rem in /home/mao_group/.qchemrc:

 Checking the input file for inconsistencies... 	...done.
 Reading auxiliary files from /opt/qchem/6.0.2/qcaux (QCAUX)

--------------------------------------------------------------
User input:
--------------------------------------------------------------
$molecule
0 1
--
0 1
H    0.03437    -0.05888   0.02542
Si   0.00790    -0.01350   1.51767
C    1.77703    0.00779    2.12478
H    2.31300    -0.88897   1.81674
H    2.31708    0.87123    1.73898
H    1.80646    0.05495    3.21325
C    -0.89705   1.54226    2.02410
H    -0.39498   2.43123    1.64570
H    -0.94260   1.62044    3.11008
H    -1.91797   1.54537    1.64561
C    -0.88532   -1.54080   2.12463
H    -0.94093   -1.54313   3.21309
H    -0.37080   -2.45002   1.81656
H    -1.90283   -1.58331   1.73875
--
0 1
I    1.16661    -2.00485   -1.55457
C    1.99354    -3.42611   -2.68666
N    2.48051    -4.26307   -3.35124
$end

$rem
JOBTYPE  OPT
GEN_SCFMAN  TRUE
METHOD  WB97X-V
BASIS  DEF2-SVPD
UNRESTRICTED  FALSE
MAX_SCF_CYCLES  2000
THRESH  14
SCF_CONVERGENCE  9
MEM_TOTAL  8000
MEM_STATIC  2000
SCF_GUESS  FRAGMO
SYMMETRY  FALSE
SYM_IGNORE  FALSE
SCF_ALGORITHM  DIIS
BASIS_LIN_DEP_THRESH  6
IDERIV  1
XC_GRID  000075000302
NL_GRID  1
FD_MAT_VEC_PROD  FALSE
GEOM_OPT_TOL_GRADIENT  50
GEOM_OPT_TOL_DISPLACEMENT  50
GEOM_OPT_TOL_ENERGY  10
GEOM_OPT_DRIVER  OPTIMIZE
GEOM_OPT_MAX_CYCLES  200
$end

--------------------------------------------------------------
 ----------------------------------------------------------------
             Standard Nuclear Orientation (Angstroms)
    I     Atom           X                Y                Z
 ----------------------------------------------------------------
    1      H      -1.3684461797    -0.0000077233     0.9510725924
    2      Si     -2.5382954640    -0.0000008534     0.0231594932
    3      C      -2.4352152778    -1.5398802491    -1.0337239890
    4      H      -1.5231840883    -1.5521682230    -1.6290214737
    5      H      -2.4494732122    -2.4408727243    -0.4221411680
    6      H      -3.2805047185    -1.5890718723    -1.7199623419
    7      C      -4.0911357363    -0.0001930752     1.0645441853
    8      H      -4.1377277703    -0.8811963871     1.7026592632
    9      H      -4.9763791840    -0.0001749965     0.4290258824
   10      H      -4.1378324882     0.8806907967     1.7028270505
   11      C      -2.4353973943     1.5400935204    -1.0334430843
   12      H      -3.2806744512     1.5892942833    -1.7196857925
   13      H      -1.5233551026     1.5526118735    -1.6287086660
   14      H      -2.4497816429     2.4409718829    -0.4216846810
   15      I       1.2943991407    -0.0000057945     0.2623129403
   16      C       3.2225847067     0.0000066071    -0.2549117723
   17      N       4.3564747266     0.0000116185    -0.5608559203
 ----------------------------------------------------------------
 Molecular Point Group                 C1    NOp =  1
 Largest Abelian Subgroup              C1    NOp =  1
 Nuclear Repulsion Energy =         436.55493920 hartrees
 There are       40 alpha and       40 beta electrons
 Requested basis set is def2-SVPD
 There are 103 shells and 239 basis functions

 Total QAlloc Memory Limit   8000 MB
 Mega-Array Size      1956 MB
 MEM_STATIC part      2000 MB

 A cutoff of  1.0D-14 yielded   4907 shell pairs
 There are     26479 function pairs (     29928 Cartesian)
 Requested basis set is def2-SVPD
 Compound shells will be simplified
 There are 103 shells and 239 basis functions
 A cutoff of  1.0D-14 yielded   4907 shell pairs
 There are     26479 function pairs (     29928 Cartesian)
 Smallest overlap matrix eigenvalue = 1.43E-04

 Scale SEOQF with 1.000000e-01/1.000000e-01/1.000000e-01

 Standard Electronic Orientation quadrupole field applied
 Nucleus-field energy     =     0.0000000205 hartrees
 Attempting to make child job directory: /scratch/qchem_scratch/qchem3095912//Frg1/
 Attempting to make child job directory: /scratch/qchem_scratch/qchem3095912//Frg2/
 Creating input file /scratch/qchem_scratch/qchem3095912/Frg1.input
 using default PutDataFrgm: nothing
 calling putenv with: QCSCRATCH=/scratch/qchem_scratch/qchem3095912/ 
 Spawning Job For Fragment 0
 Done Job For Fragment 0
 calling putenv with: QCSCRATCH=/scratch/qchem_scratch 
 calling putenv with: QCTHREADS=32 
 Creating input file /scratch/qchem_scratch/qchem3095912/Frg2.input
 using default PutDataFrgm: nothing
 calling putenv with: QCSCRATCH=/scratch/qchem_scratch/qchem3095912/ 
 Spawning Job For Fragment 1
 Done Job For Fragment 1
 calling putenv with: QCSCRATCH=/scratch/qchem_scratch 
 calling putenv with: QCTHREADS=32 
 Time for running child jobs:  CPU 4.01 s  wall 16.20 s
In frgmchild_fg_r_u. Opt. 5

 -----------------------------------------------------------------------
  General SCF calculation program by
  Eric Jon Sundstrom, Paul Horn, Yuezhi Mao, Dmitri Zuev, Alec White,
  David Stuck, Shaama M.S., Shane Yost, Joonho Lee, David Small,
  Daniel Levine, Susi Lehtola, Hugh Burton, Evgeny Epifanovsky,
  Bang C. Huynh
 -----------------------------------------------------------------------
 Exchange:     0.1670 Hartree-Fock + 1.0000 wB97X-V + LR-HF
 Correlation:  1.0000 wB97X-V
 Using Euler-Maclaurin-Lebedev (75,302) quadrature formula
 Nonlocal Correlation:  VV10 with C = 0.0100 and b = 6.00 and scale = 1.00000
 Grid used for NLC:  SG-1 standard quadrature
 using 32 threads for integral computing
 -------------------------------------------------------
 OpenMP Integral computing Module                
 Release: version 1.0, May 2013, Q-Chem Inc. Pittsburgh 
 -------------------------------------------------------
 A restricted SCF calculation will be
 performed using DIIS
 SCF converges when DIIS error is below 1.0e-09
 ---------------------------------------
  Cycle       Energy         DIIS error
 ---------------------------------------
    1    -800.0136635845      9.52e-04  
    2    -800.0187706313      1.34e-04  
    3    -800.0191976476      5.57e-05  
    4    -800.0192478308      3.62e-05  
    5    -800.0192604229      2.11e-05  
    6    -800.0192636760      3.54e-06  
    7    -800.0192638376      1.14e-06  
    8    -800.0192638597      2.11e-07  
    9    -800.0192638607      7.49e-08  
   10    -800.0192638608      2.22e-08  
   11    -800.0192638608      5.36e-09  
   12    -800.0192638608      1.71e-09  
   13    -800.0192638608      5.75e-10  Convergence criterion met
 ---------------------------------------
 SCF time:   CPU 631.39s  wall 20.00s 
 SCF   energy in the final basis set =     -800.0192638608
 Total energy in the final basis set =     -800.0192638608
 
 --------------------------------------------------------------
 
                    Orbital Energies (a.u.)
 --------------------------------------------------------------
 
 Alpha MOs
 -- Occupied --
-66.1369 -14.4432 -10.3583 -10.2751 -10.2746 -10.2746  -7.0048  -5.3927
 -5.0425  -5.0217  -5.0216  -3.7473  -3.7459  -3.7459  -2.0953  -2.0883
 -2.0882  -2.0710  -2.0710  -1.0354  -0.8989  -0.8596  -0.8185  -0.8182
 -0.6263  -0.6001  -0.5466  -0.5344  -0.5342  -0.5139  -0.5139  -0.5026
 -0.4889  -0.4888  -0.4854  -0.4287  -0.4214  -0.4211  -0.3918  -0.3915
 -- Virtual --
  0.0246   0.0580   0.0667   0.0696   0.0760   0.0882   0.0909   0.1040
  0.1135   0.1147   0.1383   0.1435   0.1456   0.1504   0.1579   0.1685
  0.1686   0.1800   0.1892   0.1907   0.1967   0.2037   0.2084   0.2170
  0.2233   0.2282   0.2296   0.2315   0.2712   0.2809   0.2841   0.2858
  0.2958   0.3028   0.3043   0.3173   0.3225   0.3324   0.3404   0.3498
  0.3537   0.3659   0.3797   0.3828   0.3884   0.3915   0.4037   0.4069
  0.4097   0.4152   0.4185   0.4333   0.4356   0.4372   0.4446   0.4448
  0.4611   0.4618   0.4673   0.4694   0.4718   0.4726   0.4886   0.4962
  0.4989   0.5083   0.5221   0.5247   0.5268   0.5275   0.5364   0.5393
  0.5445   0.5465   0.5618   0.5787   0.5825   0.5957   0.5974   0.6007
  0.6050   0.6101   0.6188   0.6321   0.6333   0.6409   0.6492   0.6564
  0.6874   0.6911   0.6944   0.7073   0.7105   0.7266   0.7459   0.7670
  0.7786   0.7897   0.8174   0.8402   0.8623   0.8625   0.8816   0.8897
  0.9041   0.9175   0.9269   0.9498   0.9632   0.9857   1.0027   1.0227
  1.0386   1.0398   1.0612   1.0778   1.0856   1.0888   1.0962   1.0983
  1.1206   1.1557   1.1683   1.1711   1.1859   1.2358   1.2441   1.2681
  1.2690   1.2736   1.2982   1.3163   1.3382   1.3394   1.3551   1.3899
  1.3950   1.4381   1.4526   1.6394   1.6767   1.6926   1.7098   1.7425
  1.7608   1.7827   1.8062   1.8132   1.8203   1.8634   1.8655   1.8867
  1.8919   1.9148   1.9469   2.0239   2.0289   2.0306   2.0361   2.0650
  2.0703   2.0831   2.1099   2.1381   2.1515   2.1676   2.2081   2.2217
  2.2443   2.2518   2.3393   2.4586   2.4855   2.4859   2.5370   2.5381
  2.6230   2.6269   2.6277   2.6420   2.6454   2.6577   2.7109   2.9268
  2.9327   2.9375   2.9588   2.9600   3.1945   3.2010   3.2017   3.2331
  3.2408   3.2585   3.5456  18.9698  19.0308  19.9056  56.6419
 --------------------------------------------------------------
 
          Ground-State Mulliken Net Atomic Charges

     Atom                 Charge (a.u.)
  ----------------------------------------
      1 H                     0.234695
      2 Si                   -0.656560
      3 C                     0.265645
      4 H                    -0.081406
      5 H                    -0.057798
      6 H                    -0.047113
      7 C                     0.366516
      8 H                    -0.039854
      9 H                    -0.026696
     10 H                    -0.039822
     11 C                     0.265647
     12 H                    -0.047125
     13 H                    -0.081414
     14 H                    -0.057773
     15 I                     0.423914
     16 C                    -0.258585
     17 N                    -0.162271
  ----------------------------------------
  Sum of atomic charges =     0.000000

 -----------------------------------------------------------------
                    Cartesian Multipole Moments
 -----------------------------------------------------------------
    Charge (ESU x 10^10)
                -0.0000
    Dipole Moment (Debye)
         X      -5.2089      Y      -0.0000      Z       0.5458
       Tot       5.2374
    Quadrupole Moments (Debye-Ang)
        XX     -89.3987     XY      -0.0000     YY     -72.7971
        XZ       4.0687     YZ       0.0000     ZZ     -73.3810
    Octopole Moments (Debye-Ang^2)
       XXX     -60.2189    XXY      -0.0002    XYY      20.5818
       YYY      -0.0015    XXZ      17.1648    XYZ      -0.0005
       YYZ       7.8303    XZZ      18.5547    YZZ       0.0004
       ZZZ      13.3268
    Hexadecapole Moments (Debye-Ang^3)
      XXXX   -3679.2121   XXXY      -0.0053   XXYY    -581.6881
      XYYY       0.0029   YYYY    -351.2426   XXXZ     134.7572
      XXYZ       0.0027   XYYZ      -2.7991   YYYZ       0.0003
      XXZZ    -584.7437   XYZZ      -0.0016   YYZZ    -110.9742
      XZZZ      23.5406   YZZZ      -0.0003   ZZZZ    -308.2527
 -----------------------------------------------------------------
 Calculating analytic gradient of the SCF energy
 Gradient of SCF Energy
            1           2           3           4           5           6
    1  -0.0049735   0.0018380   0.0001676  -0.0071339   0.0000489   0.0064311
    2   0.0000004  -0.0000028  -0.0041468   0.0003351   0.0072441   0.0005726
    3  -0.0038558   0.0014229  -0.0029222   0.0047952  -0.0046198   0.0054225
            7           8           9          10          11          12
    1  -0.0044469   0.0005534   0.0069983   0.0005532   0.0001668   0.0064342
    2  -0.0000048   0.0068537   0.0000007  -0.0068492   0.0041475  -0.0005739
    3   0.0025087  -0.0051519   0.0049013  -0.0051512  -0.0029308   0.0054253
           13          14          15          16          17
    1  -0.0071370   0.0000507   0.0069538  -0.0440852   0.0375803
    2  -0.0003367  -0.0072400  -0.0000001  -0.0000001   0.0000001
    3   0.0047974  -0.0046186  -0.0017506   0.0118823  -0.0101546
 Max gradient component =       4.409E-02
 RMS gradient           =       9.323E-03
 Gradient time:  CPU 370.39 s  wall 11.62 s
 Geometry Optimization Parameters
   NAtoms,    NIC,     NZ,  NCons,   NDum,   NFix, NCnnct, MaxDiis
       17     109       0       0       0       0       0       0


** GEOMETRY OPTIMIZATION IN DELOCALIZED INTERNAL COORDINATES **
   Searching for a Minimum

   Optimization Cycle:   1

                       Coordinates (Angstroms)
     ATOM                X               Y               Z
      1  H        -1.3684461797   -0.0000077233    0.9510725924
      2  Si       -2.5382954640   -0.0000008534    0.0231594932
      3  C        -2.4352152778   -1.5398802491   -1.0337239890
      4  H        -1.5231840883   -1.5521682230   -1.6290214737
      5  H        -2.4494732122   -2.4408727243   -0.4221411680
      6  H        -3.2805047185   -1.5890718723   -1.7199623419
      7  C        -4.0911357363   -0.0001930752    1.0645441853
      8  H        -4.1377277703   -0.8811963871    1.7026592632
      9  H        -4.9763791840   -0.0001749965    0.4290258824
     10  H        -4.1378324882    0.8806907967    1.7028270505
     11  C        -2.4353973943    1.5400935204   -1.0334430843
     12  H        -3.2806744512    1.5892942833   -1.7196857925
     13  H        -1.5233551026    1.5526118735   -1.6287086660
     14  H        -2.4497816429    2.4409718829   -0.4216846810
     15  I         1.2943991407   -0.0000057945    0.2623129403
     16  C         3.2225847067    0.0000066071   -0.2549117723
     17  N         4.3564747266    0.0000116185   -0.5608559203
   Point Group: c1    Number of degrees of freedom:    45


   Energy is   -800.019263861


 Attempting to generate delocalized internal coordinates
 Initial Hessian constructed with Jon Baker's OPTIMIZE code

 45 Hessian modes will be used to form the next step
  Hessian Eigenvalues:
     0.002000    0.004970    0.004972    0.005080    0.018559    0.036442
     0.045957    0.046002    0.055501    0.055501    0.055767    0.056534
     0.056535    0.056679    0.145929    0.146433    0.152117    0.160000
     0.160000    0.160000    0.160000    0.160000    0.160000    0.160000
     0.160000    0.160000    0.160000    0.171660    0.200000    0.200000
     0.200000    0.200000    0.212644    0.212649    0.213140    0.348255
     0.348263    0.348424    0.349066    0.349073    0.349223    0.349230
     0.349487    0.349494    1.187916

 Minimum search - taking simple RFO step
 Searching for Lamda that Minimizes Along All modes
 Value Taken    Lamda =  -0.00396431
 Step Taken.  Stepsize is  0.106596

                             Maximum     Tolerance    Cnvgd?
         Gradient           0.027410      0.000050      NO
         Displacement       0.051658      0.000050      NO
         Energy change     *********      0.000000      NO


 New Cartesian Coordinates Obtained by Inverse Iteration

 Displacement from previous Coordinates is:  0.139835
 ----------------------------------------------------------------
             Standard Nuclear Orientation (Angstroms)
    I     Atom           X                Y                Z
 ----------------------------------------------------------------
    1      H      -1.3568969302    -0.0000177512     0.9623949236
    2      Si     -2.5405560763    -0.0000018989     0.0230385024
    3      C      -2.4339415713    -1.5501462768    -1.0394438812
    4      H      -1.5109987487    -1.5632044723    -1.6415874533
    5      H      -2.4473053333    -2.4623321977    -0.4214185714
    6      H      -3.2876909904    -1.6028070128    -1.7351142212
    7      C      -4.1003938727    -0.0001888583     1.0743282590
    8      H      -4.1475816556    -0.8910649061     1.7207104256
    9      H      -4.9976940482    -0.0001700835     0.4336144164
   10      H      -4.1476753801     0.8905579400     1.7208824887
   11      C      -2.4341139873     1.5503534523    -1.0391551378
   12      H      -3.2878551838     1.6030375593    -1.7348332292
   13      H      -1.5111569784     1.5636371737    -1.6412720757
   14      H      -2.4476015655     2.4624194749    -0.4209558767
   15      I       1.2942974989    -0.0000050540     0.2697505961
   16      C       3.2432442105     0.0000113630    -0.2581466910
   17      N       4.3599764764     0.0000302317    -0.5613299559
 ----------------------------------------------------------------
 Molecular Point Group                 C1    NOp =  1
 Largest Abelian Subgroup              C1    NOp =  1
 Nuclear Repulsion Energy =         434.68833047 hartrees
 There are       40 alpha and       40 beta electrons
 Applying Cartesian multipole field
    Component          Value
    ---------          -----
     (2,0,0)        1.00000E-11
     (0,2,0)        2.00000E-11
     (0,0,2)       -3.00000E-11
 Nucleus-field energy     =     0.0000000206 hartrees
 Requested basis set is def2-SVPD
 There are 103 shells and 239 basis functions
 A cutoff of  1.0D-14 yielded   4907 shell pairs
 There are     26479 function pairs (     29928 Cartesian)
 Requested basis set is def2-SVPD
 Compound shells will be simplified
 There are 103 shells and 239 basis functions
 A cutoff of  1.0D-14 yielded   4907 shell pairs
 There are     26479 function pairs (     29928 Cartesian)
 Smallest overlap matrix eigenvalue = 1.50E-04
 Read the previous MOs as SCF guess

 -----------------------------------------------------------------------
  General SCF calculation program by
  Eric Jon Sundstrom, Paul Horn, Yuezhi Mao, Dmitri Zuev, Alec White,
  David Stuck, Shaama M.S., Shane Yost, Joonho Lee, David Small,
  Daniel Levine, Susi Lehtola, Hugh Burton, Evgeny Epifanovsky,
  Bang C. Huynh
 -----------------------------------------------------------------------
 Exchange:     0.1670 Hartree-Fock + 1.0000 wB97X-V + LR-HF
 Correlation:  1.0000 wB97X-V
 Using Euler-Maclaurin-Lebedev (75,302) quadrature formula
 Nonlocal Correlation:  VV10 with C = 0.0100 and b = 6.00 and scale = 1.00000
 Grid used for NLC:  SG-1 standard quadrature
 A restricted SCF calculation will be
 performed using DIIS
 SCF converges when DIIS error is below 1.0e-09
 ---------------------------------------
  Cycle       Energy         DIIS error
 ---------------------------------------
    1    -800.0205223348      4.30e-04  
    2    -800.0211073104      8.14e-05  
    3    -800.0211259534      7.38e-05  
    4    -800.0211575408      2.19e-05  
    5    -800.0211606666      5.45e-06  
    6    -800.0211609908      9.21e-07  
    7    -800.0211610094      2.66e-07  
    8    -800.0211610115      7.38e-08  
    9    -800.0211610116      3.11e-08  
   10    -800.0211610116      7.37e-09  
   11    -800.0211610116      2.25e-09  
   12    -800.0211610116      8.63e-10  Convergence criterion met
 ---------------------------------------
 SCF time:   CPU 560.53s  wall 18.00s 
 SCF   energy in the final basis set =     -800.0211610116
 Total energy in the final basis set =     -800.0211610116
 
 --------------------------------------------------------------
 
                    Orbital Energies (a.u.)
 --------------------------------------------------------------
 
 Alpha MOs
 -- Occupied --
-66.1420 -14.4389 -10.3544 -10.2806 -10.2800 -10.2799  -7.0043  -5.3967
 -5.0422  -5.0212  -5.0211  -3.7513  -3.7499  -3.7498  -2.0948  -2.0878
 -2.0877  -2.0704  -2.0704  -1.0409  -0.8953  -0.8558  -0.8151  -0.8147
 -0.6240  -0.5977  -0.5436  -0.5315  -0.5313  -0.5116  -0.5115  -0.5004
 -0.4902  -0.4901  -0.4845  -0.4278  -0.4214  -0.4210  -0.3931  -0.3928
 -- Virtual --
  0.0195   0.0582   0.0674   0.0710   0.0764   0.0902   0.0937   0.1045
  0.1136   0.1147   0.1382   0.1435   0.1451   0.1494   0.1574   0.1663
  0.1674   0.1774   0.1870   0.1888   0.1940   0.2020   0.2072   0.2160
  0.2220   0.2275   0.2288   0.2313   0.2702   0.2774   0.2810   0.2826
  0.2936   0.3020   0.3041   0.3142   0.3210   0.3312   0.3392   0.3503
  0.3527   0.3655   0.3770   0.3807   0.3880   0.3896   0.4011   0.4045
  0.4082   0.4125   0.4158   0.4312   0.4331   0.4360   0.4420   0.4431
  0.4582   0.4594   0.4655   0.4668   0.4701   0.4711   0.4855   0.4938
  0.4967   0.5083   0.5191   0.5220   0.5246   0.5274   0.5343   0.5359
  0.5420   0.5444   0.5598   0.5776   0.5809   0.5935   0.5946   0.5987
  0.6031   0.6083   0.6184   0.6305   0.6326   0.6390   0.6495   0.6549
  0.6857   0.6904   0.6952   0.7035   0.7090   0.7231   0.7471   0.7626
  0.7784   0.7893   0.8178   0.8397   0.8612   0.8620   0.8784   0.8855
  0.9019   0.9132   0.9226   0.9480   0.9604   0.9804   0.9996   1.0205
  1.0345   1.0348   1.0543   1.0729   1.0789   1.0815   1.0895   1.0915
  1.1161   1.1602   1.1616   1.1647   1.1822   1.2312   1.2414   1.2640
  1.2676   1.2693   1.2947   1.3146   1.3408   1.3423   1.3550   1.3872
  1.3884   1.4330   1.4457   1.6466   1.6764   1.6930   1.7105   1.7438
  1.7627   1.7833   1.7999   1.8060   1.8147   1.8620   1.8639   1.8959
  1.9010   1.9094   1.9411   2.0118   2.0134   2.0135   2.0197   2.0481
  2.0557   2.0672   2.0899   2.1227   2.1341   2.1499   2.1919   2.2055
  2.2278   2.2360   2.3246   2.4424   2.4695   2.4697   2.5424   2.5436
  2.6018   2.6060   2.6067   2.6194   2.6229   2.6343   2.7321   2.8968
  2.9029   2.9053   2.9807   2.9819   3.1741   3.1785   3.1798   3.2102
  3.2177   3.2346   3.5750  18.9687  19.0303  19.8604  56.6323
 --------------------------------------------------------------
 
          Ground-State Mulliken Net Atomic Charges

     Atom                 Charge (a.u.)
  ----------------------------------------
      1 H                     0.212823
      2 Si                   -0.580927
      3 C                     0.161624
      4 H                    -0.047170
      5 H                    -0.026367
      6 H                    -0.021429
      7 C                     0.254409
      8 H                    -0.009673
      9 H                     0.002228
     10 H                    -0.009664
     11 C                     0.161616
     12 H                    -0.021423
     13 H                    -0.047159
     14 H                    -0.026366
     15 I                     0.428557
     16 C                    -0.267714
     17 N                    -0.163364
  ----------------------------------------
  Sum of atomic charges =     0.000000

 -----------------------------------------------------------------
                    Cartesian Multipole Moments
 -----------------------------------------------------------------
    Charge (ESU x 10^10)
                 0.0000
    Dipole Moment (Debye)
         X      -5.2490      Y      -0.0000      Z       0.5394
       Tot       5.2766
    Quadrupole Moments (Debye-Ang)
        XX     -89.4330     XY      -0.0002     YY     -72.8802
        XZ       4.0783     YZ       0.0000     ZZ     -73.4741
    Octopole Moments (Debye-Ang^2)
       XXX     -60.1858    XXY      -0.0007    XYY      20.9155
       YYY      -0.0017    XXZ      17.2334    XYZ      -0.0003
       YYZ       7.6467    XZZ      18.8194    YZZ       0.0004
       ZZZ      12.7873
    Hexadecapole Moments (Debye-Ang^3)
      XXXX   -3696.9941   XXXY      -0.0105   XXYY    -584.5810
      XYYY       0.0003   YYYY    -356.2997   XXXZ     136.2598
      XXYZ       0.0026   XYYZ      -2.9098   YYYZ      -0.0000
      XXZZ    -587.4775   XYZZ      -0.0026   YYZZ    -112.5635
      XZZZ      23.4543   YZZZ      -0.0004   ZZZZ    -313.1154
 -----------------------------------------------------------------
 Calculating analytic gradient of the SCF energy
 Gradient of SCF Energy
            1           2           3           4           5           6
    1  -0.0002922  -0.0000528   0.0000005   0.0000871  -0.0000223  -0.0001077
    2   0.0000002  -0.0000004  -0.0002544   0.0000511  -0.0000292   0.0001206
    3  -0.0000764   0.0002810  -0.0002032  -0.0000359   0.0001292   0.0000173
            7           8           9          10          11          12
    1  -0.0002930   0.0000602   0.0000095   0.0000599   0.0000002  -0.0001077
    2  -0.0000007  -0.0001174   0.0000003   0.0001176   0.0002553  -0.0001209
    3   0.0000271   0.0000370  -0.0001241   0.0000369  -0.0002041   0.0000175
           13          14          15          16          17
    1   0.0000873  -0.0000220  -0.0015305   0.0035299  -0.0014062
    2  -0.0000511   0.0000289   0.0000001  -0.0000003   0.0000002
    3  -0.0000357   0.0001294   0.0006688  -0.0010651   0.0004004
 Max gradient component =       3.530E-03
 RMS gradient           =       6.129E-04
 Gradient time:  CPU 368.81 s  wall 11.53 s
 Geometry Optimization Parameters
   NAtoms,    NIC,     NZ,  NCons,   NDum,   NFix, NCnnct, MaxDiis
       17     109       0       0       0       0       0       0

 Cartesian Hessian Update
 Hessian updated using BFGS update


** GEOMETRY OPTIMIZATION IN DELOCALIZED INTERNAL COORDINATES **
   Searching for a Minimum

   Optimization Cycle:   2

                       Coordinates (Angstroms)
     ATOM                X               Y               Z
      1  H        -1.3568969302   -0.0000177512    0.9623949236
      2  Si       -2.5405560763   -0.0000018989    0.0230385024
      3  C        -2.4339415713   -1.5501462768   -1.0394438812
      4  H        -1.5109987487   -1.5632044723   -1.6415874533
      5  H        -2.4473053333   -2.4623321977   -0.4214185714
      6  H        -3.2876909904   -1.6028070128   -1.7351142212
      7  C        -4.1003938727   -0.0001888583    1.0743282590
      8  H        -4.1475816556   -0.8910649061    1.7207104256
      9  H        -4.9976940482   -0.0001700835    0.4336144164
     10  H        -4.1476753801    0.8905579400    1.7208824887
     11  C        -2.4341139873    1.5503534523   -1.0391551378
     12  H        -3.2878551838    1.6030375593   -1.7348332292
     13  H        -1.5111569784    1.5636371737   -1.6412720757
     14  H        -2.4476015655    2.4624194749   -0.4209558767
     15  I         1.2942974989   -0.0000050540    0.2697505961
     16  C         3.2432442105    0.0000113630   -0.2581466910
     17  N         4.3599764764    0.0000302317   -0.5613299559
   Point Group: c1    Number of degrees of freedom:    45


   Energy is   -800.021161012

 Hessian updated using BFGS update

 35 Hessian modes will be used to form the next step
  Hessian Eigenvalues:
     0.002000    0.004970    0.004972    0.005080    0.018468    0.036409
     0.045957    0.046002    0.055500    0.055501    0.055767    0.056534
     0.056535    0.056679    0.145929    0.146419    0.157763    0.159520
     0.160092    0.173034    0.199950    0.200001    0.212646    0.212946
     0.214067    0.347974    0.348259    0.348381    0.349067    0.349074
     0.349226    0.349245    0.349490    0.349715    1.199879

 Minimum search - taking simple RFO step
 Searching for Lamda that Minimizes Along All modes
 Value Taken    Lamda =  -0.00005375
 Step Taken.  Stepsize is  0.033596

                             Maximum     Tolerance    Cnvgd?
         Gradient           0.001525      0.000050      NO
         Displacement       0.018135      0.000050      NO
         Energy change     -0.001897      0.000000      NO


 New Cartesian Coordinates Obtained by Inverse Iteration

 Displacement from previous Coordinates is:  0.079736
 ----------------------------------------------------------------
             Standard Nuclear Orientation (Angstroms)
    I     Atom           X                Y                Z
 ----------------------------------------------------------------
    1      H      -1.3557684061    -0.0000461869     0.9638508927
    2      Si     -2.5378315548    -0.0000123299     0.0230584171
    3      C      -2.4284731145    -1.5502444226    -1.0386695050
    4      H      -1.5043823725    -1.5630256953    -1.6390939167
    5      H      -2.4419166022    -2.4625711943    -0.4208278238
    6      H      -3.2804794293    -1.6047711322    -1.7364183212
    7      C      -4.0977153422    -0.0001826093     1.0740087419
    8      H      -4.1453293649    -0.8908603739     1.7206166510
    9      H      -4.9954743240    -0.0001528476     0.4338368771
   10      H      -4.1454005849     0.8903615163     1.7207957676
   11      C      -2.4286087900     1.5504320213    -1.0383733924
   12      H      -3.2806053911     1.6050069281    -1.7361300558
   13      H      -1.5045049725     1.5634189870    -1.6387734197
   14      H      -2.4421554654     2.4626381552    -0.4203561379
   15      I       1.2786525654     0.0000019931     0.2694827975
   16      C       3.2205463147     0.0000593150    -0.2571590720
   17      N       4.3355026982     0.0000565593    -0.5683859821
 ----------------------------------------------------------------
 Molecular Point Group                 C1    NOp =  1
 Largest Abelian Subgroup              C1    NOp =  1
 Nuclear Repulsion Energy =         435.62430952 hartrees
 There are       40 alpha and       40 beta electrons
 Applying Cartesian multipole field
    Component          Value
    ---------          -----
     (2,0,0)        1.00000E-11
     (0,2,0)        2.00000E-11
     (0,0,2)       -3.00000E-11
 Nucleus-field energy     =     0.0000000204 hartrees
 Requested basis set is def2-SVPD
 There are 103 shells and 239 basis functions
 A cutoff of  1.0D-14 yielded   4907 shell pairs
 There are     26479 function pairs (     29928 Cartesian)
 Requested basis set is def2-SVPD
 Compound shells will be simplified
 There are 103 shells and 239 basis functions
 A cutoff of  1.0D-14 yielded   4907 shell pairs
 There are     26479 function pairs (     29928 Cartesian)
 Smallest overlap matrix eigenvalue = 1.50E-04
 Read the previous MOs as SCF guess

 -----------------------------------------------------------------------
  General SCF calculation program by
  Eric Jon Sundstrom, Paul Horn, Yuezhi Mao, Dmitri Zuev, Alec White,
  David Stuck, Shaama M.S., Shane Yost, Joonho Lee, David Small,
  Daniel Levine, Susi Lehtola, Hugh Burton, Evgeny Epifanovsky,
  Bang C. Huynh
 -----------------------------------------------------------------------
 Exchange:     0.1670 Hartree-Fock + 1.0000 wB97X-V + LR-HF
 Correlation:  1.0000 wB97X-V
 Using Euler-Maclaurin-Lebedev (75,302) quadrature formula
 Nonlocal Correlation:  VV10 with C = 0.0100 and b = 6.00 and scale = 1.00000
 Grid used for NLC:  SG-1 standard quadrature
 A restricted SCF calculation will be
 performed using DIIS
 SCF converges when DIIS error is below 1.0e-09
 ---------------------------------------
  Cycle       Energy         DIIS error
 ---------------------------------------
    1    -800.0211260729      1.41e-04  
    2    -800.0211827141      1.99e-05  
    3    -800.0211845592      2.21e-05  
    4    -800.0211875500      4.72e-06  
    5    -800.0211878047      1.75e-06  
    6    -800.0211878385      3.08e-07  
    7    -800.0211878408      6.37e-08  
    8    -800.0211878409      2.14e-08  
    9    -800.0211878409      7.87e-09  
   10    -800.0211878409      3.31e-09  
   11    -800.0211878409      8.84e-10  Convergence criterion met
 ---------------------------------------
 SCF time:   CPU 511.77s  wall 16.00s 
 SCF   energy in the final basis set =     -800.0211878409
 Total energy in the final basis set =     -800.0211878409
 
 --------------------------------------------------------------
 
                    Orbital Energies (a.u.)
 --------------------------------------------------------------
 
 Alpha MOs
 -- Occupied --
-66.1421 -14.4388 -10.3540 -10.2807 -10.2800 -10.2800  -7.0041  -5.3968
 -5.0419  -5.0209  -5.0208  -3.7514  -3.7500  -3.7499  -2.0945  -2.0876
 -2.0875  -2.0702  -2.0702  -1.0407  -0.8961  -0.8559  -0.8152  -0.8148
 -0.6248  -0.5977  -0.5436  -0.5316  -0.5314  -0.5117  -0.5116  -0.5004
 -0.4904  -0.4903  -0.4845  -0.4278  -0.4217  -0.4212  -0.3927  -0.3923
 -- Virtual --
  0.0219   0.0580   0.0673   0.0709   0.0764   0.0902   0.0937   0.1047
  0.1136   0.1147   0.1382   0.1434   0.1451   0.1495   0.1575   0.1664
  0.1675   0.1777   0.1871   0.1889   0.1940   0.2019   0.2074   0.2161
  0.2222   0.2280   0.2293   0.2313   0.2710   0.2776   0.2813   0.2826
  0.2935   0.3025   0.3039   0.3144   0.3209   0.3311   0.3393   0.3499
  0.3529   0.3660   0.3773   0.3803   0.3883   0.3895   0.4010   0.4047
  0.4082   0.4125   0.4158   0.4312   0.4332   0.4359   0.4418   0.4435
  0.4579   0.4601   0.4652   0.4669   0.4700   0.4709   0.4860   0.4936
  0.4974   0.5079   0.5191   0.5223   0.5256   0.5274   0.5346   0.5359
  0.5420   0.5443   0.5611   0.5781   0.5811   0.5935   0.5945   0.5993
  0.6032   0.6082   0.6180   0.6306   0.6334   0.6388   0.6502   0.6554
  0.6866   0.6905   0.6957   0.7042   0.7101   0.7235   0.7481   0.7624
  0.7796   0.7894   0.8198   0.8407   0.8625   0.8638   0.8802   0.8869
  0.9015   0.9143   0.9233   0.9483   0.9605   0.9810   1.0010   1.0216
  1.0345   1.0348   1.0558   1.0739   1.0791   1.0816   1.0895   1.0916
  1.1157   1.1604   1.1615   1.1641   1.1825   1.2336   1.2413   1.2642
  1.2682   1.2689   1.2957   1.3148   1.3410   1.3411   1.3567   1.3885
  1.3887   1.4331   1.4458   1.6463   1.6764   1.6930   1.7108   1.7440
  1.7633   1.7835   1.7997   1.8060   1.8149   1.8621   1.8640   1.8956
  1.9008   1.9095   1.9410   2.0120   2.0133   2.0137   2.0201   2.0479
  2.0558   2.0676   2.0897   2.1228   2.1338   2.1499   2.1915   2.2051
  2.2279   2.2361   2.3253   2.4432   2.4701   2.4703   2.5426   2.5438
  2.6015   2.6059   2.6066   2.6194   2.6228   2.6342   2.7353   2.8964
  2.9025   2.9049   2.9807   2.9819   3.1745   3.1787   3.1802   3.2102
  3.2177   3.2349   3.5745  18.9730  19.0367  19.8775  56.6380
 --------------------------------------------------------------
 
          Ground-State Mulliken Net Atomic Charges

     Atom                 Charge (a.u.)
  ----------------------------------------
      1 H                     0.207278
      2 Si                   -0.578990
      3 C                     0.163655
      4 H                    -0.047401
      5 H                    -0.026165
      6 H                    -0.021919
      7 C                     0.253557
      8 H                    -0.009397
      9 H                     0.001943
     10 H                    -0.009391
     11 C                     0.163650
     12 H                    -0.021914
     13 H                    -0.047393
     14 H                    -0.026165
     15 I                     0.427602
     16 C                    -0.266421
     17 N                    -0.162528
  ----------------------------------------
  Sum of atomic charges =     0.000000

 -----------------------------------------------------------------
                    Cartesian Multipole Moments
 -----------------------------------------------------------------
    Charge (ESU x 10^10)
                 0.0000
    Dipole Moment (Debye)
         X      -5.2513      Y      -0.0001      Z       0.5474
       Tot       5.2797
    Quadrupole Moments (Debye-Ang)
        XX     -89.2409     XY      -0.0002     YY     -72.8531
        XZ       4.1190     YZ       0.0001     ZZ     -73.4699
    Octopole Moments (Debye-Ang^2)
       XXX     -57.1916    XXY      -0.0016    XYY      21.4301
       YYY      -0.0028    XXZ      17.4005    XYZ      -0.0001
       YYZ       7.6489    XZZ      19.2673    YZZ       0.0000
       ZZZ      12.8898
    Hexadecapole Moments (Debye-Ang^3)
      XXXX   -3663.2286   XXXY      -0.0208   XXYY    -580.6172
      XYYY      -0.0079   YYYY    -356.2259   XXXZ     136.8137
      XXYZ       0.0024   XYYZ      -2.5394   YYYZ      -0.0007
      XXZZ    -583.6732   XYZZ      -0.0055   YYZZ    -112.5186
      XZZZ      24.3516   YZZZ      -0.0010   ZZZZ    -313.1227
 -----------------------------------------------------------------
 Calculating analytic gradient of the SCF energy
 Gradient of SCF Energy
            1           2           3           4           5           6
    1  -0.0002445   0.0000369   0.0000323   0.0000820  -0.0000111  -0.0001069
    2   0.0000002  -0.0000001  -0.0000923   0.0000030  -0.0000636   0.0000567
    3  -0.0001730   0.0002259  -0.0000510  -0.0000481   0.0000731  -0.0000324
            7           8           9          10          11          12
    1  -0.0000803   0.0000056  -0.0000371   0.0000056   0.0000322  -0.0001069
    2  -0.0000002  -0.0000836   0.0000001   0.0000837   0.0000926  -0.0000567
    3   0.0000350   0.0000544  -0.0001060   0.0000544  -0.0000513  -0.0000323
           13          14          15          16          17
    1   0.0000821  -0.0000110   0.0010445  -0.0001746  -0.0005488
    2  -0.0000031   0.0000634  -0.0000007   0.0000016  -0.0000009
    3  -0.0000480   0.0000732  -0.0002077   0.0002667  -0.0000328
 Max gradient component =       1.045E-03
 RMS gradient           =       1.886E-04
 Gradient time:  CPU 369.65 s  wall 11.56 s
 Geometry Optimization Parameters
   NAtoms,    NIC,     NZ,  NCons,   NDum,   NFix, NCnnct, MaxDiis
       17     109       0       0       0       0       0       0

 Cartesian Hessian Update
 Hessian updated using BFGS update


** GEOMETRY OPTIMIZATION IN DELOCALIZED INTERNAL COORDINATES **
   Searching for a Minimum

   Optimization Cycle:   3

                       Coordinates (Angstroms)
     ATOM                X               Y               Z
      1  H        -1.3557684061   -0.0000461869    0.9638508927
      2  Si       -2.5378315548   -0.0000123299    0.0230584171
      3  C        -2.4284731145   -1.5502444226   -1.0386695050
      4  H        -1.5043823725   -1.5630256953   -1.6390939167
      5  H        -2.4419166022   -2.4625711943   -0.4208278238
      6  H        -3.2804794293   -1.6047711322   -1.7364183212
      7  C        -4.0977153422   -0.0001826093    1.0740087419
      8  H        -4.1453293649   -0.8908603739    1.7206166510
      9  H        -4.9954743240   -0.0001528476    0.4338368771
     10  H        -4.1454005849    0.8903615163    1.7207957676
     11  C        -2.4286087900    1.5504320213   -1.0383733924
     12  H        -3.2806053911    1.6050069281   -1.7361300558
     13  H        -1.5045049725    1.5634189870   -1.6387734197
     14  H        -2.4421554654    2.4626381552   -0.4203561379
     15  I         1.2786525654    0.0000019931    0.2694827975
     16  C         3.2205463147    0.0000593150   -0.2571590720
     17  N         4.3355026982    0.0000565593   -0.5683859821
   Point Group: c1    Number of degrees of freedom:    45


   Energy is   -800.021187841

 Hessian updated using BFGS update

 36 Hessian modes will be used to form the next step
  Hessian Eigenvalues:
     0.002000    0.004970    0.004972    0.005080    0.012672    0.035952
     0.045957    0.045999    0.055412    0.055501    0.055757    0.056516
     0.056535    0.056679    0.142797    0.145929    0.147512    0.159977
     0.160000    0.169260    0.172565    0.199723    0.212500    0.212646
     0.213102    0.321101    0.346221    0.348259    0.348374    0.348799
     0.349069    0.349164    0.349226    0.349421    0.349490    1.176714

 Minimum search - taking simple RFO step
 Searching for Lamda that Minimizes Along All modes
 Value Taken    Lamda =  -0.00001935
 Step Taken.  Stepsize is  0.028188

                             Maximum     Tolerance    Cnvgd?
         Gradient           0.001347      0.000050      NO
         Displacement       0.015003      0.000050      NO
         Energy change     -0.000027      0.000000      NO


 New Cartesian Coordinates Obtained by Inverse Iteration

 Displacement from previous Coordinates is:  0.062295
 ----------------------------------------------------------------
             Standard Nuclear Orientation (Angstroms)
    I     Atom           X                Y                Z
 ----------------------------------------------------------------
    1      H      -1.3551979374    -0.0000708225     0.9652474739
    2      Si     -2.5361347661    -0.0000206690     0.0231316157
    3      C      -2.4246799829    -1.5501278755    -1.0379309368
    4      H      -1.4998920440    -1.5623882723    -1.6370275471
    5      H      -2.4378362417    -2.4623725177    -0.4202168738
    6      H      -3.2752406460    -1.6063724514    -1.7370870870
    7      C      -4.0957817935    -0.0001750088     1.0738449547
    8      H      -4.1433949755    -0.8905967940     1.7205345007
    9      H      -4.9940171920    -0.0001348872     0.4345601495
   10      H      -4.1434457560     0.8901099791     1.7207191042
   11      C      -2.4247816034     1.5502989431    -1.0376301349
   12      H      -3.2753318508     1.6066132909    -1.7367932665
   13      H      -1.4999819986     1.5627459829    -1.6367049770
   14      H      -2.4380209267     2.4624230468    -0.4197399751
   15      I       1.2638695470    -0.0000008011     0.2682000267
   16      C       3.2026971774     0.0000171034    -0.2697815892
   17      N       4.3232268544     0.0001604368    -0.5618629198
 ----------------------------------------------------------------
 Molecular Point Group                 C1    NOp =  1
 Largest Abelian Subgroup              C1    NOp =  1
 Nuclear Repulsion Energy =         436.26595287 hartrees
 There are       40 alpha and       40 beta electrons
 Applying Cartesian multipole field
    Component          Value
    ---------          -----
     (2,0,0)        1.00000E-11
     (0,2,0)        2.00000E-11
     (0,0,2)       -3.00000E-11
 Nucleus-field energy     =     0.0000000203 hartrees
 Requested basis set is def2-SVPD
 There are 103 shells and 239 basis functions
 A cutoff of  1.0D-14 yielded   4907 shell pairs
 There are     26479 function pairs (     29928 Cartesian)
 Requested basis set is def2-SVPD
 Compound shells will be simplified
 There are 103 shells and 239 basis functions
 A cutoff of  1.0D-14 yielded   4907 shell pairs
 There are     26479 function pairs (     29928 Cartesian)
 Smallest overlap matrix eigenvalue = 1.49E-04
 Read the previous MOs as SCF guess

 -----------------------------------------------------------------------
  General SCF calculation program by
  Eric Jon Sundstrom, Paul Horn, Yuezhi Mao, Dmitri Zuev, Alec White,
  David Stuck, Shaama M.S., Shane Yost, Joonho Lee, David Small,
  Daniel Levine, Susi Lehtola, Hugh Burton, Evgeny Epifanovsky,
  Bang C. Huynh
 -----------------------------------------------------------------------
 Exchange:     0.1670 Hartree-Fock + 1.0000 wB97X-V + LR-HF
 Correlation:  1.0000 wB97X-V
 Using Euler-Maclaurin-Lebedev (75,302) quadrature formula
 Nonlocal Correlation:  VV10 with C = 0.0100 and b = 6.00 and scale = 1.00000
 Grid used for NLC:  SG-1 standard quadrature
 A restricted SCF calculation will be
 performed using DIIS
 SCF converges when DIIS error is below 1.0e-09
 ---------------------------------------
  Cycle       Energy         DIIS error
 ---------------------------------------
    1    -800.0209121346      2.57e-04  
    2    -800.0211657650      3.07e-05  
    3    -800.0211828633      9.00e-06  
    4    -800.0211848160      5.42e-06  
    5    -800.0211850656      2.93e-06  
    6    -800.0211851430      6.74e-07  
    7    -800.0211851535      2.05e-07  
    8    -800.0211851544      7.52e-08  
    9    -800.0211851546      1.93e-08  
   10    -800.0211851546      5.03e-09  
   11    -800.0211851546      1.50e-09  
   12    -800.0211851546      4.25e-10  Convergence criterion met
 ---------------------------------------
 SCF time:   CPU 549.60s  wall 17.00s 
 SCF   energy in the final basis set =     -800.0211851546
 Total energy in the final basis set =     -800.0211851546
 
 --------------------------------------------------------------
 
                    Orbital Energies (a.u.)
 --------------------------------------------------------------
 
 Alpha MOs
 -- Occupied --
-66.1422 -14.4387 -10.3538 -10.2807 -10.2800 -10.2800  -7.0039  -5.3969
 -5.0417  -5.0208  -5.0207  -3.7515  -3.7501  -3.7501  -2.0944  -2.0874
 -2.0873  -2.0700  -2.0700  -1.0403  -0.8960  -0.8560  -0.8154  -0.8149
 -0.6253  -0.5975  -0.5436  -0.5317  -0.5315  -0.5118  -0.5117  -0.5005
 -0.4902  -0.4901  -0.4844  -0.4279  -0.4219  -0.4214  -0.3925  -0.3922
 -- Virtual --
  0.0222   0.0580   0.0675   0.0710   0.0764   0.0900   0.0937   0.1045
  0.1139   0.1147   0.1382   0.1434   0.1449   0.1497   0.1574   0.1662
  0.1676   0.1778   0.1875   0.1888   0.1939   0.2019   0.2078   0.2161
  0.2225   0.2284   0.2299   0.2312   0.2713   0.2778   0.2817   0.2827
  0.2936   0.3026   0.3038   0.3146   0.3210   0.3309   0.3392   0.3496
  0.3531   0.3654   0.3776   0.3807   0.3880   0.3904   0.4009   0.4052
  0.4087   0.4125   0.4159   0.4312   0.4334   0.4362   0.4417   0.4443
  0.4576   0.4603   0.4660   0.4669   0.4701   0.4709   0.4860   0.4935
  0.4972   0.5072   0.5191   0.5222   0.5262   0.5275   0.5350   0.5359
  0.5419   0.5443   0.5606   0.5782   0.5815   0.5935   0.5941   0.6001
  0.6032   0.6081   0.6172   0.6307   0.6336   0.6392   0.6510   0.6564
  0.6870   0.6908   0.6963   0.7046   0.7109   0.7237   0.7490   0.7622
  0.7801   0.7892   0.8211   0.8419   0.8629   0.8654   0.8804   0.8874
  0.9010   0.9147   0.9241   0.9484   0.9606   0.9810   1.0022   1.0222
  1.0345   1.0348   1.0561   1.0748   1.0792   1.0816   1.0897   1.0917
  1.1151   1.1606   1.1621   1.1639   1.1828   1.2354   1.2411   1.2643
  1.2685   1.2686   1.2958   1.3144   1.3416   1.3460   1.3539   1.3887
  1.3891   1.4332   1.4460   1.6469   1.6766   1.6930   1.7112   1.7441
  1.7636   1.7837   1.7995   1.8061   1.8151   1.8625   1.8643   1.8955
  1.9006   1.9096   1.9409   2.0122   2.0133   2.0141   2.0206   2.0480
  2.0562   2.0680   2.0898   2.1230   2.1337   2.1500   2.1913   2.2050
  2.2282   2.2363   2.3256   2.4438   2.4707   2.4709   2.5427   2.5438
  2.6015   2.6061   2.6068   2.6196   2.6231   2.6344   2.7348   2.8964
  2.9026   2.9050   2.9805   2.9820   3.1750   3.1792   3.1808   3.2105
  3.2179   3.2355   3.5743  18.9767  19.0436  19.8811  56.6403
 --------------------------------------------------------------
 
          Ground-State Mulliken Net Atomic Charges

     Atom                 Charge (a.u.)
  ----------------------------------------
      1 H                     0.201961
      2 Si                   -0.577302
      3 C                     0.166778
      4 H                    -0.048014
      5 H                    -0.026357
      6 H                    -0.022653
      7 C                     0.254020
      8 H                    -0.009364
      9 H                     0.001132
     10 H                    -0.009360
     11 C                     0.166777
     12 H                    -0.022650
     13 H                    -0.048011
     14 H                    -0.026358
     15 I                     0.426018
     16 C                    -0.262708
     17 N                    -0.163907
  ----------------------------------------
  Sum of atomic charges =     0.000000

 -----------------------------------------------------------------
                    Cartesian Multipole Moments
 -----------------------------------------------------------------
    Charge (ESU x 10^10)
                 0.0000
    Dipole Moment (Debye)
         X      -5.2710      Y      -0.0002      Z       0.5331
       Tot       5.2979
    Quadrupole Moments (Debye-Ang)
        XX     -89.1807     XY      -0.0011     YY     -72.8401
        XZ       4.0334     YZ       0.0002     ZZ     -73.4299
    Octopole Moments (Debye-Ang^2)
       XXX     -55.4638    XXY      -0.0055    XYY      21.8397
       YYY      -0.0030    XXZ      17.0790    XYZ       0.0005
       YYZ       7.6777    XZZ      19.7592    YZZ      -0.0001
       ZZZ      13.0394
    Hexadecapole Moments (Debye-Ang^3)
      XXXX   -3642.0237   XXXY      -0.0453   XXYY    -577.7869
      XYYY      -0.0155   YYYY    -356.1070   XXXZ     135.3422
      XXYZ       0.0044   XYYZ      -2.2302   YYYZ      -0.0006
      XXZZ    -580.3527   XYZZ      -0.0085   YYZZ    -112.4016
      XZZZ      24.9764   YZZZ      -0.0007   ZZZZ    -312.7033
 -----------------------------------------------------------------
 Calculating analytic gradient of the SCF energy
 Gradient of SCF Energy
            1           2           3           4           5           6
    1  -0.0001781   0.0000848   0.0000177  -0.0000067  -0.0000019  -0.0000092
    2  -0.0000000   0.0000001   0.0000047  -0.0000245   0.0000008   0.0000006
    3  -0.0002582   0.0001905   0.0000164  -0.0000058  -0.0000177  -0.0000083
            7           8           9          10          11          12
    1   0.0000249  -0.0000208   0.0000025  -0.0000208   0.0000177  -0.0000092
    2   0.0000000   0.0000185  -0.0000000  -0.0000185  -0.0000048  -0.0000006
    3   0.0000278   0.0000007  -0.0000176   0.0000007   0.0000165  -0.0000083
           13          14          15          16          17
    1  -0.0000067  -0.0000019   0.0010966  -0.0015289   0.0005400
    2   0.0000244  -0.0000008   0.0000023  -0.0000057   0.0000034
    3  -0.0000057  -0.0000177   0.0002618  -0.0005551   0.0003800
 Max gradient component =       1.529E-03
 RMS gradient           =       2.971E-04
 Gradient time:  CPU 369.96 s  wall 11.57 s
 Geometry Optimization Parameters
   NAtoms,    NIC,     NZ,  NCons,   NDum,   NFix, NCnnct, MaxDiis
       17     109       0       0       0       0       0       0

 Cartesian Hessian Update
 Hessian updated using BFGS update


** GEOMETRY OPTIMIZATION IN DELOCALIZED INTERNAL COORDINATES **
   Searching for a Minimum

   Optimization Cycle:   4

                       Coordinates (Angstroms)
     ATOM                X               Y               Z
      1  H        -1.3551979374   -0.0000708225    0.9652474739
      2  Si       -2.5361347661   -0.0000206690    0.0231316157
      3  C        -2.4246799829   -1.5501278755   -1.0379309368
      4  H        -1.4998920440   -1.5623882723   -1.6370275471
      5  H        -2.4378362417   -2.4623725177   -0.4202168738
      6  H        -3.2752406460   -1.6063724514   -1.7370870870
      7  C        -4.0957817935   -0.0001750088    1.0738449547
      8  H        -4.1433949755   -0.8905967940    1.7205345007
      9  H        -4.9940171920   -0.0001348872    0.4345601495
     10  H        -4.1434457560    0.8901099791    1.7207191042
     11  C        -2.4247816034    1.5502989431   -1.0376301349
     12  H        -3.2753318508    1.6066132909   -1.7367932665
     13  H        -1.4999819986    1.5627459829   -1.6367049770
     14  H        -2.4380209267    2.4624230468   -0.4197399751
     15  I         1.2638695470   -0.0000008011    0.2682000267
     16  C         3.2026971774    0.0000171034   -0.2697815892
     17  N         4.3232268544    0.0001604368   -0.5618629198
   Point Group: c1    Number of degrees of freedom:    45


   Energy is   -800.021185155

 Hessian updated using BFGS update

 37 Hessian modes will be used to form the next step
  Hessian Eigenvalues:
     0.002000    0.004963    0.004971    0.005080    0.008277    0.035775
     0.045957    0.045988    0.055342    0.055501    0.055741    0.056505
     0.056535    0.142157    0.145929    0.147748    0.159973    0.160000
     0.160001    0.170820    0.197844    0.200000    0.200105    0.212646
     0.212973    0.214298    0.344684    0.348259    0.348368    0.348744
     0.349069    0.349158    0.349226    0.349408    0.349490    0.954916
     1.204237

 Minimum search - taking simple RFO step
 Searching for Lamda that Minimizes Along All modes
 Value Taken    Lamda =  -0.00003021
 Step Taken.  Stepsize is  0.020283

                             Maximum     Tolerance    Cnvgd?
         Gradient           0.004448      0.000050      NO
         Displacement       0.010901      0.000050      NO
         Energy change      0.000003      0.000000      NO


 New Cartesian Coordinates Obtained by Inverse Iteration

 Displacement from previous Coordinates is:  0.043390
 ----------------------------------------------------------------
             Standard Nuclear Orientation (Angstroms)
    I     Atom           X                Y                Z
 ----------------------------------------------------------------
    1      H      -1.3554993804    -0.0000918857     0.9669825107
    2      Si     -2.5353652745    -0.0000286513     0.0231602831
    3      C      -2.4220818974    -1.5500188689    -1.0373722676
    4      H      -1.4966616296    -1.5617124920    -1.6352748435
    5      H      -2.4350884597    -2.4621242625    -0.4196560162
    6      H      -3.2714619017    -1.6074903991    -1.7376500201
    7      C      -4.0952276834    -0.0001721005     1.0730795652
    8      H      -4.1428929150    -0.8904353145     1.7197757830
    9      H      -4.9935823522    -0.0001233539     0.4341773813
   10      H      -4.1429289248     0.8899511875     1.7199656118
   11      C      -2.4221586211     1.5501760141    -1.0370658202
   12      H      -3.2715283173     1.6077340780    -1.7373489700
   13      H      -1.4967281332     1.5620431597    -1.6349492073
   14      H      -2.4352326206     2.4621598953    -0.4191715554
   15      I       1.2533417912     0.0000095180     0.2690987617
   16      C       3.1966076126     0.0000976221    -0.2632564487
   17      N       4.3125445710     0.0001345373    -0.5730322294
 ----------------------------------------------------------------
 Molecular Point Group                 C1    NOp =  1
 Largest Abelian Subgroup              C1    NOp =  1
 Nuclear Repulsion Energy =         436.61194059 hartrees
 There are       40 alpha and       40 beta electrons
 Applying Cartesian multipole field
    Component          Value
    ---------          -----
     (2,0,0)        1.00000E-11
     (0,2,0)        2.00000E-11
     (0,0,2)       -3.00000E-11
 Nucleus-field energy     =     0.0000000202 hartrees
 Requested basis set is def2-SVPD
 There are 103 shells and 239 basis functions
 A cutoff of  1.0D-14 yielded   4907 shell pairs
 There are     26479 function pairs (     29928 Cartesian)
 Requested basis set is def2-SVPD
 Compound shells will be simplified
 There are 103 shells and 239 basis functions
 A cutoff of  1.0D-14 yielded   4907 shell pairs
 There are     26479 function pairs (     29928 Cartesian)
 Smallest overlap matrix eigenvalue = 1.49E-04
 Read the previous MOs as SCF guess

 -----------------------------------------------------------------------
  General SCF calculation program by
  Eric Jon Sundstrom, Paul Horn, Yuezhi Mao, Dmitri Zuev, Alec White,
  David Stuck, Shaama M.S., Shane Yost, Joonho Lee, David Small,
  Daniel Levine, Susi Lehtola, Hugh Burton, Evgeny Epifanovsky,
  Bang C. Huynh
 -----------------------------------------------------------------------
 Exchange:     0.1670 Hartree-Fock + 1.0000 wB97X-V + LR-HF
 Correlation:  1.0000 wB97X-V
 Using Euler-Maclaurin-Lebedev (75,302) quadrature formula
 Nonlocal Correlation:  VV10 with C = 0.0100 and b = 6.00 and scale = 1.00000
 Grid used for NLC:  SG-1 standard quadrature
 A restricted SCF calculation will be
 performed using DIIS
 SCF converges when DIIS error is below 1.0e-09
 ---------------------------------------
  Cycle       Energy         DIIS error
 ---------------------------------------
    1    -800.0209768984      2.32e-04  
    2    -800.0211830541      2.88e-05  
    3    -800.0211963647      1.44e-05  
    4    -800.0211976920      1.27e-05  
    5    -800.0211989347      2.28e-06  
    6    -800.0211990005      7.03e-07  
    7    -800.0211990110      2.03e-07  
    8    -800.0211990119      5.75e-08  
    9    -800.0211990120      1.80e-08  
   10    -800.0211990121      6.95e-09  
   11    -800.0211990121      1.55e-09  
   12    -800.0211990121      3.39e-10  Convergence criterion met
 ---------------------------------------
 SCF time:   CPU 544.21s  wall 17.00s 
 SCF   energy in the final basis set =     -800.0211990121
 Total energy in the final basis set =     -800.0211990121
 
 --------------------------------------------------------------
 
                    Orbital Energies (a.u.)
 --------------------------------------------------------------
 
 Alpha MOs
 -- Occupied --
-66.1424 -14.4386 -10.3537 -10.2808 -10.2801 -10.2801  -7.0038  -5.3971
 -5.0417  -5.0207  -5.0206  -3.7517  -3.7503  -3.7503  -2.0943  -2.0873
 -2.0872  -2.0699  -2.0699  -1.0401  -0.8955  -0.8562  -0.8156  -0.8151
 -0.6255  -0.5973  -0.5437  -0.5318  -0.5316  -0.5119  -0.5118  -0.5007
 -0.4898  -0.4897  -0.4843  -0.4279  -0.4221  -0.4216  -0.3925  -0.3922
 -- Virtual --
  0.0218   0.0579   0.0674   0.0711   0.0765   0.0900   0.0937   0.1048
  0.1138   0.1148   0.1381   0.1434   0.1449   0.1497   0.1575   0.1663
  0.1676   0.1778   0.1873   0.1889   0.1939   0.2018   0.2077   0.2161
  0.2225   0.2287   0.2301   0.2314   0.2715   0.2777   0.2818   0.2827
  0.2935   0.3031   0.3037   0.3147   0.3209   0.3309   0.3392   0.3495
  0.3531   0.3662   0.3777   0.3801   0.3884   0.3897   0.4008   0.4051
  0.4083   0.4125   0.4156   0.4312   0.4333   0.4360   0.4415   0.4442
  0.4575   0.4607   0.4654   0.4669   0.4699   0.4708   0.4862   0.4933
  0.4978   0.5072   0.5190   0.5225   0.5268   0.5278   0.5350   0.5359
  0.5419   0.5442   0.5616   0.5785   0.5814   0.5935   0.5941   0.6001
  0.6032   0.6080   0.6175   0.6308   0.6341   0.6390   0.6511   0.6561
  0.6874   0.6909   0.6967   0.7051   0.7114   0.7240   0.7496   0.7621
  0.7812   0.7890   0.8219   0.8412   0.8633   0.8651   0.8803   0.8873
  0.9007   0.9147   0.9242   0.9482   0.9605   0.9813   1.0027   1.0222
  1.0343   1.0347   1.0567   1.0753   1.0794   1.0817   1.0898   1.0917
  1.1148   1.1607   1.1621   1.1641   1.1828   1.2360   1.2410   1.2644
  1.2681   1.2690   1.2965   1.3145   1.3416   1.3419   1.3569   1.3887
  1.3901   1.4332   1.4459   1.6469   1.6764   1.6930   1.7110   1.7440
  1.7638   1.7837   1.7994   1.8061   1.8152   1.8627   1.8646   1.8959
  1.9011   1.9096   1.9407   2.0123   2.0133   2.0143   2.0209   2.0480
  2.0563   2.0682   2.0899   2.1231   2.1336   2.1501   2.1912   2.2049
  2.2284   2.2365   2.3256   2.4440   2.4710   2.4712   2.5428   2.5440
  2.6016   2.6061   2.6069   2.6197   2.6232   2.6345   2.7335   2.8965
  2.9027   2.9052   2.9802   2.9814   3.1753   3.1794   3.1811   3.2106
  3.2179   3.2358   3.5742  18.9789  19.0459  19.8786  56.6420
 --------------------------------------------------------------
 
          Ground-State Mulliken Net Atomic Charges

     Atom                 Charge (a.u.)
  ----------------------------------------
      1 H                     0.197953
      2 Si                   -0.576040
      3 C                     0.169041
      4 H                    -0.048242
      5 H                    -0.026357
      6 H                    -0.023429
      7 C                     0.254641
      8 H                    -0.009207
      9 H                     0.000354
     10 H                    -0.009206
     11 C                     0.169040
     12 H                    -0.023427
     13 H                    -0.048240
     14 H                    -0.026359
     15 I                     0.429948
     16 C                    -0.267095
     17 N                    -0.163375
  ----------------------------------------
  Sum of atomic charges =     0.000000

 -----------------------------------------------------------------
                    Cartesian Multipole Moments
 -----------------------------------------------------------------
    Charge (ESU x 10^10)
                 0.0000
    Dipole Moment (Debye)
         X      -5.2859      Y      -0.0001      Z       0.5485
       Tot       5.3143
    Quadrupole Moments (Debye-Ang)
        XX     -89.0608     XY      -0.0007     YY     -72.8325
        XZ       4.1197     YZ       0.0001     ZZ     -73.4576
    Octopole Moments (Debye-Ang^2)
       XXX     -53.9501    XXY      -0.0043    XYY      22.0977
       YYY      -0.0042    XXZ      17.4323    XYZ       0.0003
       YYZ       7.6542    XZZ      19.9057    YZZ      -0.0004
       ZZZ      13.0348
    Hexadecapole Moments (Debye-Ang^3)
      XXXX   -3625.8788   XXXY      -0.0440   XXYY    -575.9634
      XYYY      -0.0209   YYYY    -355.9931   XXXZ     137.1393
      XXYZ       0.0031   XYYZ      -1.9508   YYYZ      -0.0014
      XXZZ    -579.0145   XYZZ      -0.0103   YYZZ    -112.3948
      XZZZ      25.7530   YZZZ      -0.0014   ZZZZ    -312.9295
 -----------------------------------------------------------------
 Calculating analytic gradient of the SCF energy
 Gradient of SCF Energy
            1           2           3           4           5           6
    1  -0.0001127   0.0001067  -0.0000042  -0.0000796   0.0000004   0.0000714
    2   0.0000001   0.0000001   0.0000528  -0.0000255   0.0000585  -0.0000318
    3  -0.0002216   0.0001357   0.0000369   0.0000427  -0.0000766   0.0000266
            7           8           9          10          11          12
    1   0.0000596  -0.0000277   0.0000429  -0.0000276  -0.0000042   0.0000715
    2   0.0000002   0.0000900  -0.0000001  -0.0000900  -0.0000531   0.0000320
    3   0.0000033  -0.0000466   0.0000587  -0.0000466   0.0000371   0.0000265
           13          14          15          16          17
    1  -0.0000796   0.0000004  -0.0000928  -0.0007302   0.0008058
    2   0.0000254  -0.0000584  -0.0000004   0.0000006  -0.0000003
    3   0.0000427  -0.0000766   0.0001359   0.0002053  -0.0002836
 Max gradient component =       8.058E-04
 RMS gradient           =       1.722E-04
 Gradient time:  CPU 371.01 s  wall 11.60 s
 Geometry Optimization Parameters
   NAtoms,    NIC,     NZ,  NCons,   NDum,   NFix, NCnnct, MaxDiis
       17     109       0       0       0       0       0       0

 Cartesian Hessian Update
 Hessian updated using BFGS update


** GEOMETRY OPTIMIZATION IN DELOCALIZED INTERNAL COORDINATES **
   Searching for a Minimum

   Optimization Cycle:   5

                       Coordinates (Angstroms)
     ATOM                X               Y               Z
      1  H        -1.3554993804   -0.0000918857    0.9669825107
      2  Si       -2.5353652745   -0.0000286513    0.0231602831
      3  C        -2.4220818974   -1.5500188689   -1.0373722676
      4  H        -1.4966616296   -1.5617124920   -1.6352748435
      5  H        -2.4350884597   -2.4621242625   -0.4196560162
      6  H        -3.2714619017   -1.6074903991   -1.7376500201
      7  C        -4.0952276834   -0.0001721005    1.0730795652
      8  H        -4.1428929150   -0.8904353145    1.7197757830
      9  H        -4.9935823522   -0.0001233539    0.4341773813
     10  H        -4.1429289248    0.8899511875    1.7199656118
     11  C        -2.4221586211    1.5501760141   -1.0370658202
     12  H        -3.2715283173    1.6077340780   -1.7373489700
     13  H        -1.4967281332    1.5620431597   -1.6349492073
     14  H        -2.4352326206    2.4621598953   -0.4191715554
     15  I         1.2533417912    0.0000095180    0.2690987617
     16  C         3.1966076126    0.0000976221   -0.2632564487
     17  N         4.3125445710    0.0001345373   -0.5730322294
   Point Group: c1    Number of degrees of freedom:    45


   Energy is   -800.021199012

 Hessian updated using BFGS update

 37 Hessian modes will be used to form the next step
  Hessian Eigenvalues:
     0.002000    0.004954    0.004971    0.008666    0.035752    0.045949
     0.045957    0.055357    0.055729    0.056506    0.056679    0.142481
     0.145929    0.148037    0.159650    0.159996    0.160000    0.160000
     0.171674    0.193835    0.200000    0.200000    0.208542    0.212589
     0.212646    0.213078    0.345550    0.348259    0.348364    0.348721
     0.349069    0.349154    0.349226    0.349406    0.349490    0.972244
     1.199392

 Minimum search - taking simple RFO step
 Searching for Lamda that Minimizes Along All modes
 Value Taken    Lamda =  -0.00000176
 Step Taken.  Stepsize is  0.005489

                             Maximum     Tolerance    Cnvgd?
         Gradient           0.000613      0.000050      NO
         Displacement       0.002837      0.000050      NO
         Energy change     -0.000014      0.000000      NO


 New Cartesian Coordinates Obtained by Inverse Iteration

 Displacement from previous Coordinates is:  0.013391
 ----------------------------------------------------------------
             Standard Nuclear Orientation (Angstroms)
    I     Atom           X                Y                Z
 ----------------------------------------------------------------
    1      H      -1.3552019649    -0.0000855266     0.9666697058
    2      Si     -2.5356929675    -0.0000260160     0.0227089334
    3      C      -2.4230332788    -1.5501911609    -1.0379449973
    4      H      -1.4980416911    -1.5616099912    -1.6367739768
    5      H      -2.4354039621    -2.4622786421    -0.4199331502
    6      H      -3.2733067671    -1.6074767292    -1.7373319271
    7      C      -4.0952035597    -0.0001732129     1.0734426628
    8      H      -4.1423092060    -0.8906268580     1.7201842263
    9      H      -4.9938539090    -0.0001264623     0.4347693481
   10      H      -4.1423502764     0.8901413080     1.7203727498
   11      C      -2.4231188588     1.5503532101    -1.0376406482
   12      H      -3.2733840291     1.6077193791    -1.7370310876
   13      H      -1.4981177843     1.5619497601    -1.6364516302
   14      H      -2.4355599553     2.4623193752    -0.4194512728
   15      I       1.2559927639     0.0000068229     0.2686358066
   16      C       3.1993433587     0.0000728715    -0.2622634066
   17      N       4.3152979515     0.0001405558    -0.5704988177
 ----------------------------------------------------------------
 Molecular Point Group                 C1    NOp =  1
 Largest Abelian Subgroup              C1    NOp =  1
 Nuclear Repulsion Energy =         436.49797855 hartrees
 There are       40 alpha and       40 beta electrons
 Applying Cartesian multipole field
    Component          Value
    ---------          -----
     (2,0,0)        1.00000E-11
     (0,2,0)        2.00000E-11
     (0,0,2)       -3.00000E-11
 Nucleus-field energy     =     0.0000000202 hartrees
 Requested basis set is def2-SVPD
 There are 103 shells and 239 basis functions
 A cutoff of  1.0D-14 yielded   4907 shell pairs
 There are     26479 function pairs (     29928 Cartesian)
 Requested basis set is def2-SVPD
 Compound shells will be simplified
 There are 103 shells and 239 basis functions
 A cutoff of  1.0D-14 yielded   4907 shell pairs
 There are     26479 function pairs (     29928 Cartesian)
 Smallest overlap matrix eigenvalue = 1.49E-04
 Read the previous MOs as SCF guess

 -----------------------------------------------------------------------
  General SCF calculation program by
  Eric Jon Sundstrom, Paul Horn, Yuezhi Mao, Dmitri Zuev, Alec White,
  David Stuck, Shaama M.S., Shane Yost, Joonho Lee, David Small,
  Daniel Levine, Susi Lehtola, Hugh Burton, Evgeny Epifanovsky,
  Bang C. Huynh
 -----------------------------------------------------------------------
 Exchange:     0.1670 Hartree-Fock + 1.0000 wB97X-V + LR-HF
 Correlation:  1.0000 wB97X-V
 Using Euler-Maclaurin-Lebedev (75,302) quadrature formula
 Nonlocal Correlation:  VV10 with C = 0.0100 and b = 6.00 and scale = 1.00000
 Grid used for NLC:  SG-1 standard quadrature
 A restricted SCF calculation will be
 performed using DIIS
 SCF converges when DIIS error is below 1.0e-09
 ---------------------------------------
  Cycle       Energy         DIIS error
 ---------------------------------------
    1    -800.0211973079      2.42e-05  
    2    -800.0211997485      3.42e-06  
    3    -800.0211999047      2.14e-06  
    4    -800.0211999374      1.19e-06  
    5    -800.0211999483      4.82e-07  
    6    -800.0211999504      7.11e-08  
    7    -800.0211999504      2.13e-08  
    8    -800.0211999505      4.06e-09  
    9    -800.0211999505      1.93e-09  
   10    -800.0211999505      5.19e-10  Convergence criterion met
 ---------------------------------------
 SCF time:   CPU 458.69s  wall 15.00s 
 SCF   energy in the final basis set =     -800.0211999505
 Total energy in the final basis set =     -800.0211999505
 
 --------------------------------------------------------------
 
                    Orbital Energies (a.u.)
 --------------------------------------------------------------
 
 Alpha MOs
 -- Occupied --
-66.1424 -14.4385 -10.3537 -10.2808 -10.2802 -10.2801  -7.0038  -5.3971
 -5.0417  -5.0207  -5.0206  -3.7517  -3.7503  -3.7503  -2.0943  -2.0873
 -2.0872  -2.0699  -2.0699  -1.0402  -0.8956  -0.8561  -0.8155  -0.8151
 -0.6254  -0.5973  -0.5437  -0.5318  -0.5316  -0.5119  -0.5118  -0.5006
 -0.4899  -0.4898  -0.4843  -0.4279  -0.4220  -0.4216  -0.3925  -0.3922
 -- Virtual --
  0.0219   0.0579   0.0674   0.0711   0.0765   0.0901   0.0937   0.1048
  0.1138   0.1148   0.1381   0.1434   0.1449   0.1497   0.1575   0.1662
  0.1676   0.1778   0.1873   0.1888   0.1939   0.2018   0.2077   0.2161
  0.2224   0.2286   0.2300   0.2314   0.2715   0.2776   0.2818   0.2826
  0.2935   0.3030   0.3037   0.3146   0.3209   0.3310   0.3391   0.3495
  0.3531   0.3661   0.3777   0.3802   0.3884   0.3897   0.4008   0.4050
  0.4083   0.4125   0.4156   0.4312   0.4333   0.4360   0.4415   0.4441
  0.4575   0.4606   0.4654   0.4669   0.4699   0.4708   0.4862   0.4933
  0.4977   0.5072   0.5190   0.5224   0.5267   0.5277   0.5349   0.5359
  0.5419   0.5442   0.5615   0.5785   0.5813   0.5935   0.5941   0.6000
  0.6032   0.6080   0.6175   0.6307   0.6341   0.6390   0.6510   0.6560
  0.6873   0.6908   0.6966   0.7050   0.7113   0.7239   0.7495   0.7621
  0.7809   0.7890   0.8218   0.8413   0.8632   0.8650   0.8802   0.8873
  0.9008   0.9146   0.9240   0.9481   0.9605   0.9812   1.0026   1.0222
  1.0343   1.0347   1.0565   1.0750   1.0793   1.0817   1.0897   1.0916
  1.1149   1.1606   1.1620   1.1641   1.1828   1.2358   1.2410   1.2643
  1.2681   1.2689   1.2965   1.3146   1.3416   1.3421   1.3568   1.3887
  1.3899   1.4332   1.4459   1.6470   1.6763   1.6930   1.7110   1.7440
  1.7637   1.7836   1.7993   1.8060   1.8150   1.8626   1.8644   1.8960
  1.9012   1.9095   1.9406   2.0120   2.0131   2.0140   2.0206   2.0479
  2.0562   2.0679   2.0898   2.1230   2.1336   2.1500   2.1911   2.2048
  2.2282   2.2364   2.3251   2.4435   2.4705   2.4707   2.5429   2.5441
  2.6014   2.6059   2.6067   2.6195   2.6230   2.6342   2.7343   2.8963
  2.9025   2.9049   2.9808   2.9819   3.1750   3.1791   3.1807   3.2103
  3.2176   3.2354   3.5748  18.9782  19.0447  19.8785  56.6416
 --------------------------------------------------------------
 
          Ground-State Mulliken Net Atomic Charges

     Atom                 Charge (a.u.)
  ----------------------------------------
      1 H                     0.198378
      2 Si                   -0.575606
      3 C                     0.167514
      4 H                    -0.047776
      5 H                    -0.025962
      6 H                    -0.023026
      7 C                     0.253487
      8 H                    -0.008749
      9 H                     0.000561
     10 H                    -0.008747
     11 C                     0.167513
     12 H                    -0.023023
     13 H                    -0.047774
     14 H                    -0.025963
     15 I                     0.429523
     16 C                    -0.266929
     17 N                    -0.163422
  ----------------------------------------
  Sum of atomic charges =     0.000000

 -----------------------------------------------------------------
                    Cartesian Multipole Moments
 -----------------------------------------------------------------
    Charge (ESU x 10^10)
                 0.0000
    Dipole Moment (Debye)
         X      -5.2838      Y      -0.0002      Z       0.5443
       Tot       5.3118
    Quadrupole Moments (Debye-Ang)
        XX     -89.0854     XY      -0.0008     YY     -72.8351
        XZ       4.1104     YZ       0.0001     ZZ     -73.4564
    Octopole Moments (Debye-Ang^2)
       XXX     -54.3350    XXY      -0.0046    XYY      22.0350
       YYY      -0.0039    XXZ      17.3660    XYZ       0.0004
       YYZ       7.6663    XZZ      19.8684    YZZ      -0.0003
       ZZZ      13.0381
    Hexadecapole Moments (Debye-Ang^3)
      XXXX   -3630.3052   XXXY      -0.0440   XXYY    -576.4862
      XYYY      -0.0190   YYYY    -356.0712   XXXZ     136.7388
      XXYZ       0.0035   XYYZ      -2.0875   YYYZ      -0.0011
      XXZZ    -579.4670   XYZZ      -0.0096   YYZZ    -112.4217
      XZZZ      25.3893   YZZZ      -0.0012   ZZZZ    -312.9461
 -----------------------------------------------------------------
 Calculating analytic gradient of the SCF energy
 Gradient of SCF Energy
            1           2           3           4           5           6
    1   0.0000040  -0.0000174  -0.0000147   0.0000054  -0.0000024   0.0000016
    2   0.0000000   0.0000000   0.0000295  -0.0000072  -0.0000130  -0.0000087
    3  -0.0000806   0.0000217   0.0000160  -0.0000035  -0.0000026  -0.0000085
            7           8           9          10          11          12
    1   0.0000386  -0.0000117  -0.0000037  -0.0000116  -0.0000147   0.0000016
    2   0.0000000  -0.0000025  -0.0000000   0.0000025  -0.0000296   0.0000087
    3  -0.0000078   0.0000079  -0.0000048   0.0000079   0.0000160  -0.0000086
           13          14          15          16          17
    1   0.0000054  -0.0000024   0.0000443   0.0001068  -0.0001292
    2   0.0000072   0.0000130   0.0000004  -0.0000012   0.0000007
    3  -0.0000035  -0.0000026   0.0001074  -0.0000458  -0.0000085
 Max gradient component =       1.292E-04
 RMS gradient           =       3.331E-05
 Gradient time:  CPU 371.10 s  wall 11.60 s
 Geometry Optimization Parameters
   NAtoms,    NIC,     NZ,  NCons,   NDum,   NFix, NCnnct, MaxDiis
[...]
 Frequency:       718.03                 720.34                 839.90
 Force Cnst:      0.8397                 0.8393                 0.5931
 Red. Mass:       2.7645                 2.7452                 1.4269
 IR Active:          YES                    YES                    YES
 IR Intens:        8.901                  8.999                 18.920
 Raman Active:       YES                    YES                    YES
               X      Y      Z        X      Y      Z        X      Y      Z
 H         -0.000  0.302 -0.000   -0.225 -0.000  0.211    0.000 -0.324  0.000
 Si        -0.000  0.153 -0.000   -0.113 -0.000  0.104    0.000 -0.063 -0.000
 C          0.052 -0.157 -0.144   -0.025 -0.133 -0.026    0.076  0.039  0.019
 H          0.021 -0.387 -0.212    0.001  0.125  0.005   -0.023 -0.235 -0.166
 H         -0.021 -0.104 -0.065    0.109 -0.318 -0.280   -0.133  0.100  0.073
 H          0.007 -0.249 -0.106    0.081 -0.067 -0.131   -0.133  0.219  0.194
 C          0.000  0.077 -0.000    0.223 -0.000 -0.111   -0.000  0.114 -0.000
 H          0.271 -0.078 -0.148    0.329 -0.014 -0.114    0.374 -0.111 -0.210
 H          0.000 -0.109 -0.000    0.235  0.000 -0.110   -0.000 -0.178  0.000
 H         -0.271 -0.078  0.148    0.329  0.014 -0.114   -0.373 -0.111  0.210
 C         -0.052 -0.157  0.144   -0.025  0.134 -0.026   -0.076  0.040 -0.019
 H         -0.006 -0.249  0.106    0.081  0.067 -0.131    0.133  0.218 -0.194
 H         -0.021 -0.387  0.212    0.001 -0.125  0.005    0.023 -0.235  0.167
 H          0.021 -0.104  0.065    0.109  0.318 -0.280    0.133  0.100 -0.073
 I          0.000  0.000 -0.000    0.000 -0.000 -0.000   -0.000  0.000 -0.000
 C          0.000 -0.000  0.000    0.000  0.000  0.000   -0.000 -0.000  0.000
 N          0.000  0.000 -0.000    0.000 -0.000 -0.000   -0.000  0.000  0.000
 TransDip  -0.000  0.096 -0.000   -0.070 -0.000  0.066    0.000 -0.139 -0.000

 Mode:                22                     23                     24
 Frequency:       841.62                 860.22                 915.58
 Force Cnst:      0.6138                 0.6900                 0.6533
 Red. Mass:       1.4707                 1.5827                 1.3227
 IR Active:          YES                    YES                    YES
 IR Intens:       26.703                 65.609                160.231
 Raman Active:       YES                    YES                    YES
               X      Y      Z        X      Y      Z        X      Y      Z
 H          0.207  0.000 -0.202   -0.048 -0.000 -0.056    0.000  0.811 -0.000
 Si         0.047  0.000 -0.053   -0.070 -0.000 -0.060   -0.000 -0.082  0.000
 C         -0.038 -0.044  0.096    0.081 -0.014  0.059   -0.032  0.043 -0.042
 H         -0.033  0.356  0.073   -0.058 -0.127 -0.223    0.037  0.014  0.119
 H          0.099 -0.305 -0.296   -0.124 -0.114 -0.141    0.009  0.184  0.184
 H          0.051  0.251 -0.004   -0.124  0.369  0.207    0.016 -0.188 -0.062
 C         -0.061 -0.000 -0.032    0.060  0.000  0.086    0.000  0.053 -0.000
 H          0.068  0.021  0.035   -0.227 -0.044 -0.057    0.149 -0.052 -0.100
 H         -0.252  0.000  0.165    0.387 -0.000 -0.263   -0.000 -0.094  0.000
 H          0.068 -0.021  0.035   -0.227  0.044 -0.057   -0.149 -0.051  0.100
 C         -0.038  0.044  0.096    0.081  0.014  0.059    0.032  0.043  0.042
 H          0.051 -0.251 -0.004   -0.124 -0.369  0.207   -0.016 -0.188  0.062
 H         -0.033 -0.355  0.073   -0.058  0.127 -0.223   -0.037  0.014 -0.119
 H          0.099  0.305 -0.296   -0.124  0.114 -0.141   -0.009  0.184 -0.184
 I         -0.000  0.000 -0.000    0.000 -0.000 -0.000    0.000 -0.000  0.000
 C         -0.000 -0.000  0.000   -0.001 -0.000 -0.000   -0.000  0.001 -0.000
 N         -0.000 -0.000  0.000   -0.001  0.000  0.001   -0.000 -0.000  0.000
 TransDip   0.107  0.000 -0.126   -0.196 -0.000 -0.170   -0.000 -0.405  0.000

 Mode:                25                     26                     27
 Frequency:       933.49                1273.31                1273.50
 Force Cnst:      0.6495                 1.2252                 1.2273
 Red. Mass:       1.2650                 1.2825                 1.2844
 IR Active:          YES                    YES                    YES
 IR Intens:      154.838                 42.757                 43.140
 Raman Active:       YES                    YES                    YES
               X      Y      Z        X      Y      Z        X      Y      Z
 H          0.618 -0.000 -0.580    0.000 -0.019 -0.000   -0.015 -0.000  0.014
 Si        -0.051  0.000  0.053   -0.000  0.016  0.000    0.012  0.000 -0.011
 C          0.049  0.004 -0.009    0.014 -0.092 -0.060   -0.011  0.051  0.037
 H         -0.004 -0.180 -0.107    0.113  0.355  0.159   -0.070 -0.197 -0.096
 H         -0.081  0.028  0.013   -0.070  0.197  0.345    0.049 -0.117 -0.197
 H         -0.067  0.047  0.088   -0.174  0.356  0.097    0.112 -0.195 -0.067
 C         -0.018 -0.000 -0.070    0.001 -0.004 -0.000   -0.115 -0.000  0.054
 H          0.200  0.019  0.008   -0.003  0.004  0.009    0.417 -0.174 -0.082
 H         -0.194  0.000  0.122   -0.002  0.016  0.003    0.301  0.000 -0.355
 H          0.200 -0.019  0.008   -0.004  0.001 -0.008    0.417  0.174 -0.083
 C          0.049 -0.004 -0.009   -0.014 -0.092  0.059   -0.011 -0.052  0.038
 H         -0.067 -0.047  0.088    0.172  0.352 -0.096    0.115  0.201 -0.069
 H         -0.004  0.180 -0.107   -0.111  0.351 -0.157   -0.072  0.203 -0.099
 H         -0.081 -0.028  0.013    0.069  0.194 -0.341    0.051  0.120 -0.203
 I         -0.000  0.000  0.000   -0.000 -0.000 -0.000    0.000 -0.000  0.000
 C         -0.001 -0.000 -0.002    0.000  0.000  0.000   -0.000  0.000 -0.000
 N         -0.000  0.000  0.000   -0.000 -0.000 -0.000    0.000 -0.000  0.000
 TransDip  -0.282  0.000  0.282   -0.001  0.209  0.001    0.153  0.002 -0.144

 Mode:                28                     29                     30
 Frequency:      1280.68                1425.49                1426.98
 Force Cnst:      1.2057                 1.2594                 1.2593
 Red. Mass:       1.2477                 1.0519                 1.0497
 IR Active:          YES                    YES                    YES
 IR Intens:        7.681                  0.001                  0.038
 Raman Active:       YES                    YES                    YES
               X      Y      Z        X      Y      Z        X      Y      Z
 H          0.011  0.000  0.012   -0.000 -0.001 -0.000    0.000 -0.010 -0.000
 Si         0.003 -0.000  0.003   -0.000 -0.000 -0.000   -0.000 -0.000 -0.000
 C          0.009 -0.069 -0.048    0.018  0.019 -0.024   -0.040  0.006 -0.016
 H          0.094  0.281  0.139    0.142  0.013  0.262    0.061 -0.331  0.202
 H         -0.051  0.163  0.279   -0.110 -0.085 -0.192    0.495 -0.019  0.049
 H         -0.144  0.282  0.081   -0.265 -0.174  0.245   -0.021  0.280 -0.037
 C         -0.079  0.000  0.034    0.000 -0.039  0.000    0.000 -0.011  0.000
 H          0.307 -0.120 -0.054    0.256  0.033  0.151    0.078  0.010  0.043
 H          0.216 -0.000 -0.257   -0.000  0.455 -0.000   -0.000  0.135  0.000
 H          0.307  0.119 -0.054   -0.256  0.033 -0.151   -0.078  0.010 -0.043
 C          0.009  0.069 -0.048   -0.018  0.019  0.024    0.040  0.006  0.016
 H         -0.144 -0.283  0.081    0.265 -0.175 -0.244    0.020  0.280  0.037
 H          0.094 -0.281  0.139   -0.141  0.013 -0.262   -0.061 -0.330 -0.202
 H         -0.051 -0.163  0.280    0.110 -0.085  0.192   -0.494 -0.019 -0.050
 I         -0.000 -0.000 -0.000    0.000 -0.000  0.000   -0.000 -0.000 -0.000
 C          0.000 -0.000  0.000    0.000  0.000 -0.000    0.000  0.000 -0.000
 N         -0.000  0.000 -0.000   -0.000 -0.000  0.000   -0.000 -0.000 -0.000
 TransDip   0.063 -0.000  0.062    0.000  0.001  0.000    0.000 -0.006  0.000

 Mode:                31                     32                     33
 Frequency:      1427.45                1437.27                1437.71
 Force Cnst:      1.2599                 1.2732                 1.2738
 Red. Mass:       1.0494                 1.0461                 1.0460
 IR Active:          YES                    YES                    YES
 IR Intens:        0.052                  3.344                  3.285
 Raman Active:       YES                    YES                    YES
               X      Y      Z        X      Y      Z        X      Y      Z
 H         -0.008 -0.000  0.007    0.000  0.030 -0.000   -0.022  0.000  0.022
 Si         0.000 -0.000  0.000   -0.000 -0.008  0.000    0.006 -0.000 -0.005
 C          0.010 -0.014  0.022   -0.004 -0.014  0.022    0.030  0.017 -0.018
 H         -0.119  0.164 -0.271   -0.131  0.058 -0.267    0.131  0.136  0.217
 H         -0.194  0.066  0.095   -0.030  0.076  0.144   -0.288 -0.094 -0.234
 H          0.176 -0.039 -0.133    0.224  0.066 -0.191   -0.275 -0.288  0.274
 C         -0.019 -0.000 -0.043    0.000 -0.044  0.000   -0.008 -0.000 -0.013
 H          0.045  0.294  0.396    0.322  0.039  0.179    0.021  0.099  0.136
 H          0.166  0.000 -0.217   -0.000  0.549 -0.000    0.064  0.001 -0.083
 H          0.044 -0.294  0.396   -0.322  0.039 -0.179    0.020 -0.099  0.136
 C          0.010  0.014  0.022    0.004 -0.014 -0.022    0.030 -0.017 -0.018
 H          0.176  0.039 -0.133   -0.223  0.066  0.191   -0.276  0.289  0.275
 H         -0.119 -0.164 -0.271    0.131  0.059  0.266    0.131 -0.136  0.218
 H         -0.194 -0.066  0.095    0.031  0.076 -0.143   -0.288  0.094 -0.234
 I          0.000 -0.000  0.000    0.000  0.000  0.000   -0.000  0.000 -0.000
 C         -0.000  0.000 -0.000   -0.000 -0.000 -0.000    0.000 -0.000  0.000
 N          0.000 -0.000  0.000    0.000  0.000  0.000   -0.000 -0.000 -0.000
 TransDip  -0.007  0.000  0.002    0.000  0.059 -0.000   -0.043  0.000  0.039

 Mode:                34                     35                     36
 Frequency:      1443.84                2178.90                2367.83
 Force Cnst:      1.2821                 2.9062                42.1764
 Red. Mass:       1.0439                 1.0390                12.7678
 IR Active:          YES                    YES                    YES
 IR Intens:       10.433                163.726                  8.006
 Raman Active:       YES                    YES                    YES
               X      Y      Z        X      Y      Z        X      Y      Z
 H         -0.006  0.000 -0.004    0.686  0.000  0.727   -0.006 -0.000 -0.006
 Si        -0.006 -0.000 -0.007   -0.023 -0.000 -0.025    0.000  0.000  0.000
 C         -0.024  0.010 -0.017   -0.001  0.000 -0.000    0.000  0.000  0.000
 H          0.090 -0.268  0.237   -0.004 -0.002  0.000   -0.001 -0.001 -0.001
 H          0.365 -0.048 -0.026    0.001  0.001 -0.004    0.000 -0.000  0.000
 H         -0.099  0.180  0.049   -0.000 -0.007 -0.006    0.000 -0.000 -0.001
 C         -0.013 -0.000 -0.031   -0.000 -0.000 -0.001    0.000 -0.000 -0.000
 H          0.026  0.236  0.316   -0.001  0.003 -0.001    0.000 -0.000  0.000
 H          0.141 -0.000 -0.178   -0.009  0.000  0.003   -0.000 -0.000  0.000
 H          0.026 -0.235  0.316   -0.001 -0.003 -0.001    0.000  0.000  0.000
 C         -0.024 -0.010 -0.017   -0.001 -0.000 -0.000    0.000 -0.000  0.000
 H         -0.099 -0.180  0.049   -0.000  0.007 -0.006    0.000  0.000 -0.001
 H          0.090  0.268  0.237   -0.004  0.002  0.000   -0.001  0.001 -0.001
 H          0.365  0.048 -0.026    0.001 -0.001 -0.004    0.000  0.000  0.000
 I          0.000 -0.000  0.000   -0.000  0.000  0.000   -0.006  0.000  0.002
 C         -0.000 -0.000 -0.000    0.000 -0.000 -0.000    0.722 -0.000 -0.312
 N         -0.000  0.000  0.000   -0.001  0.000  0.000   -0.567  0.000  0.246
 TransDip   0.071  0.000  0.075   -0.280 -0.000 -0.300    0.083 -0.000 -0.035

 Mode:                37                     38                     39
 Frequency:      3047.51                3047.74                3048.85
 Force Cnst:      5.6750                 5.6765                 5.6799
 Red. Mass:       1.0371                 1.0372                 1.0371
 IR Active:          YES                    YES                    YES
 IR Intens:        3.097                  5.507                  4.720
 Raman Active:       YES                    YES                    YES
               X      Y      Z        X      Y      Z        X      Y      Z
 H          0.000  0.000  0.001    0.000 -0.001  0.000    0.001  0.000 -0.000
 Si         0.000 -0.000 -0.001    0.000  0.001 -0.000   -0.001  0.000  0.001
 C         -0.003  0.029  0.021    0.003 -0.029 -0.022    0.000 -0.003 -0.002
 H          0.365  0.000 -0.161   -0.368 -0.000  0.163   -0.033 -0.001  0.014
 H         -0.042 -0.326  0.225    0.041  0.321 -0.224    0.004  0.034 -0.024
 H         -0.285 -0.011 -0.310    0.287  0.011  0.312    0.030  0.001  0.032
 C          0.005 -0.000 -0.002    0.000  0.000 -0.000    0.048 -0.000 -0.018
 H         -0.007 -0.046  0.033   -0.001 -0.003  0.003   -0.064 -0.453  0.317
 H         -0.041 -0.000 -0.042   -0.000  0.000 -0.000   -0.424 -0.000 -0.432
 H         -0.007  0.046  0.033    0.001 -0.003 -0.002   -0.064  0.454  0.317
 C         -0.003 -0.029  0.021   -0.004 -0.029  0.022    0.000  0.003 -0.002
 H         -0.284  0.011 -0.309   -0.288  0.011 -0.313    0.030 -0.001  0.032
 H          0.364 -0.000 -0.161    0.369 -0.000 -0.163   -0.034  0.001  0.014
 H         -0.041  0.325  0.224   -0.042  0.323  0.224    0.004 -0.035 -0.024
 I         -0.000  0.000 -0.000   -0.000 -0.000 -0.000   -0.000 -0.000 -0.000
 C         -0.000 -0.000 -0.000   -0.000  0.000 -0.000    0.000  0.000  0.000
 N          0.000  0.000  0.000    0.000 -0.000 -0.000    0.000 -0.000 -0.000
 TransDip   0.002  0.000  0.056    0.000 -0.075  0.000    0.065 -0.000 -0.026

 Mode:                40                     41                     42
 Frequency:      3138.86                3139.67                3141.34
 Force Cnst:      6.3947                 6.3969                 6.4026
 Red. Mass:       1.1016                 1.1014                 1.1012
 IR Active:          YES                    YES                    YES
 IR Intens:        0.501                  8.239                 19.831
 Raman Active:       YES                    YES                    YES
               X      Y      Z        X      Y      Z        X      Y      Z
 H          0.000  0.001  0.000    0.002 -0.000  0.004    0.006  0.000  0.005
 Si        -0.000  0.000 -0.000   -0.001 -0.000 -0.000   -0.001 -0.000 -0.001
 C         -0.058  0.012 -0.028   -0.048  0.014 -0.030   -0.030  0.001 -0.008
 H          0.357 -0.005 -0.172    0.271 -0.004 -0.133    0.208 -0.005 -0.098
 H         -0.030 -0.158  0.101   -0.032 -0.192  0.124   -0.007 -0.020  0.011
 H          0.365  0.026  0.411    0.333  0.025  0.373    0.159  0.012  0.182
 C          0.000 -0.003  0.000    0.016  0.000  0.038   -0.032 -0.000 -0.075
 H          0.003  0.018 -0.014    0.030  0.160 -0.107   -0.058 -0.310  0.208
 H         -0.000 -0.001 -0.000   -0.253 -0.000 -0.245    0.501  0.000  0.482
 H         -0.003  0.018  0.014    0.030 -0.160 -0.107   -0.058  0.310  0.207
 C          0.058  0.011  0.028   -0.048 -0.014 -0.030   -0.030 -0.001 -0.008
 H         -0.365  0.026 -0.410    0.334 -0.025  0.373    0.159 -0.012  0.182
 H         -0.357 -0.005  0.172    0.272  0.004 -0.133    0.208  0.004 -0.098
 H          0.030 -0.158 -0.100   -0.032  0.193  0.124   -0.007  0.020  0.011
 I          0.000  0.000  0.000   -0.000 -0.000  0.000   -0.000 -0.000  0.000
 C          0.000 -0.000 -0.000    0.000  0.000 -0.000    0.000 -0.000 -0.000
 N         -0.000  0.000  0.000   -0.000  0.000  0.000   -0.000  0.000  0.000
 TransDip  -0.000  0.023 -0.000   -0.088 -0.000 -0.026   -0.101 -0.000 -0.101

 Mode:                43                     44                     45
 Frequency:      3143.50                3143.94                3146.19
 Force Cnst:      6.4144                 6.4155                 6.4255
 Red. Mass:       1.1017                 1.1016                 1.1018
 IR Active:          YES                    YES                    YES
 IR Intens:        3.878                 14.542                 11.435
 Raman Active:       YES                    YES                    YES
               X      Y      Z        X      Y      Z        X      Y      Z
 H         -0.000  0.001  0.000   -0.000  0.000 -0.002    0.000  0.002  0.000
 Si         0.000 -0.000 -0.000   -0.000 -0.000  0.001   -0.000 -0.001  0.000
 C         -0.029 -0.036  0.045   -0.032 -0.035  0.044   -0.002 -0.006  0.007
 H          0.382 -0.014 -0.169    0.402 -0.015 -0.178    0.042 -0.002 -0.018
 H          0.051  0.454 -0.296    0.050  0.445 -0.290    0.008  0.075 -0.048
 H         -0.079 -0.011 -0.075   -0.066 -0.010 -0.059   -0.022 -0.002 -0.023
 C         -0.000  0.013 -0.000    0.005  0.000  0.013   -0.000 -0.091  0.000
 H         -0.014 -0.082  0.060    0.011  0.056 -0.039    0.097  0.556 -0.407
 H          0.000  0.002  0.000   -0.085 -0.000 -0.082    0.000 -0.015  0.000
 H          0.014 -0.082 -0.060    0.011 -0.057 -0.039   -0.097  0.557  0.406
 C          0.030 -0.036 -0.045   -0.032  0.035  0.044    0.002 -0.006 -0.007
 H          0.080 -0.011  0.075   -0.065  0.010 -0.059    0.022 -0.002  0.023
 H         -0.384 -0.013  0.169    0.400  0.015 -0.177   -0.042 -0.002  0.018
 H         -0.051  0.456  0.297    0.050 -0.443 -0.289   -0.008  0.075  0.048
 I          0.000 -0.000 -0.000   -0.000 -0.000  0.000    0.000 -0.000  0.000
 C         -0.000 -0.000  0.000    0.000 -0.000 -0.000    0.000  0.000 -0.000
 N          0.000  0.000 -0.000   -0.000  0.000  0.000   -0.000 -0.000  0.000
 TransDip   0.000 -0.063 -0.000   -0.061 -0.000  0.106   -0.000 -0.108  0.000

 STANDARD THERMODYNAMIC QUANTITIES AT   298.15 K  AND     1.00 ATM

   This Molecule has  0 Imaginary Frequencies
   Zero point vibrational energy:       79.689 kcal/mol

   Atom    1 Element H  Has Mass    1.00783
   Atom    2 Element Si Has Mass   27.97693
   Atom    3 Element C  Has Mass   12.00000
   Atom    4 Element H  Has Mass    1.00783
   Atom    5 Element H  Has Mass    1.00783
   Atom    6 Element H  Has Mass    1.00783
   Atom    7 Element C  Has Mass   12.00000
   Atom    8 Element H  Has Mass    1.00783
   Atom    9 Element H  Has Mass    1.00783
   Atom   10 Element H  Has Mass    1.00783
   Atom   11 Element C  Has Mass   12.00000
   Atom   12 Element H  Has Mass    1.00783
   Atom   13 Element H  Has Mass    1.00783
   Atom   14 Element H  Has Mass    1.00783
   Atom   15 Element I  Has Mass  126.90440
   Atom   16 Element C  Has Mass   12.00000
   Atom   17 Element N  Has Mass   14.00307
   Molecular Mass:   226.962700 amu
   Principal axes and moments of inertia in amu*Bohr^2:
                             1           2           3
    Eigenvalues --      571.13956  5097.21299  5107.92232
          X               0.99999    -0.00001    -0.00414
          Y               0.00000     1.00000    -0.00101
          Z               0.00414     0.00101     0.99999
   Rotational Symmetry Number is   1
   The Molecule is an Asymmetric Top
   Translational Enthalpy:        0.889 kcal/mol
   Rotational Enthalpy:           0.889 kcal/mol
   Vibrational Enthalpy:         85.991 kcal/mol
   gas constant (RT):             0.592 kcal/mol
   Translational Entropy:        42.161  cal/mol.K
   Rotational Entropy:           31.075  cal/mol.K
   Vibrational Entropy:          49.045  cal/mol.K

   Total Enthalpy:               88.361 kcal/mol
   Total Entropy:               122.281  cal/mol.K
 Total job time:  4908.69s(wall), 19842.43s(cpu) 
 Fri Feb  9 01:50:43 2024

        *************************************************************
        *                                                           *
        *  Thank you very much for using Q-Chem.  Have a nice day.  *
        *                                                           *
        *************************************************************


