
Running Job 1 of 6 Me3SiH_K_adiabatic_eda.in
qchem Me3SiH_K_adiabatic_eda.in_40205.0 /scratch/qchem_scratch/qchem40205/ 0
/opt/qchem/6.0.2/exe/qcprog.exe_s Me3SiH_K_adiabatic_eda.in_40205.0 /scratch/qchem_scratch/qchem40205/
                  Welcome to Q-Chem
     A Quantum Leap Into The Future Of Chemistry


 Q-Chem 6.0, Q-Chem, Inc., Pleasanton, CA (2022)

 E. Epifanovsky,  A. T. B. Gilbert,  Xintian Feng,  Joonho Lee,  Yuezhi Mao,  
 N. Mardirossian,  P. Pokhilko,  A. White,  M. Wormit,  M. P. Coons,  
 A. L. Dempwolff,  Zhengting Gan,  D. Hait,  P. R. Horn,  L. D. Jacobson,  
 I. Kaliman,  J. Kussmann,  A. W. Lange,  Ka Un Lao,  D. S. Levine,  Jie Liu,  
 S. C. McKenzie,  A. F. Morrison,  K. Nanda,  F. Plasser,  D. R. Rehn,  
 M. L. Vidal,  Zhi-Qiang You,  Ying Zhu,  B. Alam,  B. Albrecht,  
 A. Aldossary,  E. Alguire,  J. H. Andersen,  V. Athavale,  D. Barton,  
 K. Begam,  A. Behn,  N. Bellonzi,  Y. A. Bernard,  E. J. Berquist,  
 H. Burton,  A. Carreras,  K. Carter-Fenk,  Romit Chakraborty,  
 Chandrima Chakravarty,  Junhan Chen,  A. D. Chien,  K. D. Closser,  
 V. Cofer-Shabica,  L. Cunha,  S. Dasgupta,  Jia Deng,  M. de Wergifosse,  
 M. Diedenhofen,  Hainam Do,  S. Ehlert,  Po-Tung Fang,  S. Fatehi,  
 Qingguo Feng,  T. Friedhoff,  B. Ganoe,  J. Gayvert,  Qinghui Ge,  
 G. Gidofalvi,  M. Goldey,  J. Gomes,  C. Gonzalez-Espinoza,  S. Gulania,  
 A. Gunina,  J. A. Gyamfi,  M. W. D. Hanson-Heine,  P. H. P. Harbach,  
 A. W. Hauser,  M. F. Herbst,  M. Hernandez Vera,  M. Hodecker,  
 Z. C. Holden,  S. Houck,  Xunkun Huang,  Kerwin Hui,  B. C. Huynh,  
 K. Ikeda,  M. Ivanov,  Hyunjun Ji,  Zuxin Jin,  Hanjie Jiang,  B. Kaduk,  
 S. Kaehler,  R. Kang,  K. Khistyaev,  Jaehoon Kim,  Yongbin Kim,  
 P. Klunzinger,  Z. Koczor-Benda,  Joong Hoon Koh,  D. Kosenkov,  
 Saikiran Kotaru,  L. Koulias,  T. Kowalczyk,  C. M. Krauter,  K. Kue,  
 A. Kunitsa,  T. Kus,  A. Landau,  K. V. Lawler,  D. Lefrancois,  S. Lehtola,  
 Rain Li,  Shaozhi Li,  Yi-Pei Li,  Jiashu Liang,  M. Liebenthal,  
 Hung-Hsuan Lin,  You-Sheng Lin,  Fenglai Liu,  Kuan-Yu Liu,  
 M. Loipersberger,  A. Luenser,  C. Malbon,  A. Manjanath,  P. Manohar,  
 E. Mansoor,  S. F. Manzer,  Shan-Ping Mao,  A. V. Marenich,  T. Markovich,  
 S. Mason,  F. Matz,  S. A. Maurer,  P. F. McLaughlin,  M. F. S. J. Menger,  
 J.-M. Mewes,  S. A. Mewes,  P. Morgante,  Mohammad Mostafanejad,  
 J. W. Mullinax,  K. J. Oosterbaan,  G. Paran,  V. Parravicini,  
 Alexander C. Paul,  Suranjan K. Paul,  F. Pavosevic,  Zheng Pei,  S. Prager,  
 E. I. Proynov,  E. Ramos,  B. Rana,  A. E. Rask,  A. Rettig,  R. M. Richard,  
 F. Rob,  E. Rossomme,  T. Scheele,  M. Scheurer,  M. Schneider,  
 P. E. Schneider,  N. Sergueev,  S. M. Sharada,  Hengyuan Shen,  
 W. Skomorowski,  D. W. Small,  C. J. Stein,  Yingli Su,  Yu-Chuan Su,  
 E. J. Sundstrom,  Zhen Tao,  J. Thirman,  Hung-Yi Tsai,  T. Tsuchimochi,  
 N. M. Tubman,  C. Utku,  S. P. Veccham,  O. Vydrov,  J. Wenzel,  
 Jonathan Wong,  J. Witte,  A. Yamada,  Chou-Hsun Yang,  Kun Yao,  
 S. Yeganeh,  S. R. Yost,  A. Zech,  F. Zeller,  Igor Ying Zhang,  
 Xing Zhang,  Yu Zhang,  D. Zuev,  A. Aspuru-Guzik,  A. T. Bell,  
 N. A. Besley,  K. B. Bravaya,  B. R. Brooks,  D. Casanova,  Jeng-Da Chai,  
 Hsing-Ta Chen,  S. Coriani,  C. J. Cramer,  A. E. DePrince, III,  
 R. A. DiStasio Jr.,  A. Dreuw,  B. D. Dunietz,  T. R. Furlani,  
 W. A. Goddard III,  S. Grimme,  S. Hammes-Schiffer,  T. Head-Gordon,  
 W. J. Hehre,  Chao-Ping Hsu,  T.-C. Jagau,  Yousung Jung,  A. Klamt,  
 Jing Kong,  D. S. Lambrecht,  Xiangyuan Li,  WanZhen Liang,  N. J. Mayhall,  
 C. W. McCurdy,  J. B. Neaton,  T. Neudecker,  C. Ochsenfeld,  
 J. A. Parkhill,  R. Peverati,  V. A. Rassolov,  Haisheng Ren,  Yihan Shao,  
 L. V. Slipchenko,  R. P. Steele,  J. E. Subotnik,  A. J. W. Thom,  
 A. Tkatchenko,  D. G. Truhlar,  T. Van Voorhis,  Fan Wang,  
 T. A. Wesolowski,  K. B. Whaley,  H. L. Woodcock III,  P. M. Zimmerman,  
 S. Faraji,  P. M. W. Gill,  M. Head-Gordon,  J. M. Herbert,  A. I. Krylov

 Contributors to earlier versions of Q-Chem not listed above: 
 R. D. Adamson,  B. Austin,  R. Baer,  J. Baker,  G. J. O. Beran,  
 K. Brandhorst,  S. T. Brown,  E. F. C. Byrd,  Arup K. Chakraborty,  
 G. K. L. Chan,  Chun-Min Chang,  Yunqing Chen,  C.-L. Cheng,  
 Siu Hung Chien,  D. M. Chipman,  D. L. Crittenden,  H. Dachsel,  
 R. J. Doerksen,  A. D. Dutoi,  R. G. Edgar,  J. Fosso-Tande,  
 L. Fusti-Molnar,  D. Ghosh,  A. Ghysels,  A. Golubeva-Zadorozhnaya,  
 J. Gonthier,  M. S. Gordon,  S. R. Gwaltney,  G. Hawkins,  J. E. Herr,  
 A. Heyden,  S. Hirata,  E. G. Hohenstein,  G. Kedziora,  F. J. Keil,  
 C. Kelley,  Jihan Kim,  R. A. King,  R. Z. Khaliullin,  P. P. Korambath,  
 W. Kurlancheek,  A. Laurent,  A. M. Lee,  M. S. Lee,  S. V. Levchenko,  
 Ching Yeh Lin,  D. Liotard,  E. Livshits,  R. C. Lochan,  I. Lotan,  
 L. A. Martinez-Martinez,  P. E. Maslen,  N. Nair,  D. P. O'Neill,  
 D. Neuhauser,  E. Neuscamman,  C. M. Oana,  R. Olivares-Amaya,  R. Olson,  
 T. M. Perrine,  B. Peters,  P. A. Pieniazek,  A. Prociuk,  Y. M. Rhee,  
 J. Ritchie,  M. A. Rohrdanz,  E. Rosta,  N. J. Russ,  H. F. Schaefer III,  
 M. W. Schmidt,  N. E. Schultz,  S. Sharma,  N. Shenvi,  C. D. Sherrill,  
 A. C. Simmonett,  A. Sodt,  T. Stein,  D. Stuck,  K. S. Thanthiriwatte,  
 V. Vanovschi,  L. Vogt,  Tao Wang,  A. Warshel,  M. A. Watson,  
 C. F. Williams,  Q. Wu,  X. Xu,  Jun Yang,  W. Zhang,  Yan Zhao

   Please cite Q-Chem as follows:
  "Software for the frontiers of quantum chemistry:
   An overview of developments in the Q-Chem 5 package"
   J. Chem. Phys. 155, 084801 (2021)
   https://doi.org/10.1063/5.0055522 (open access)

 Q-Chem 6.0.2 for Intel X86 EM64T Linux

 Parts of Q-Chem use Armadillo 9.900.5 (Nocturnal Misbehaviour).
 http://arma.sourceforge.net/

 Q-Chem begins on Sun Nov 19 11:34:27 2023  

 Host: 
0

     Scratch files written to /scratch/qchem_scratch/qchem40205//
 Dec722 |scratch|qcdevops|jenkins|workspace|build_RNUM 8907   
 Processing $rem in /opt/qchem/6.0.2/config/preferences:
 Processing $rem in /home/mao_group/.qchemrc:

 Checking the input file for inconsistencies... 	...done.

--------------------------------------------------------------
User input:
--------------------------------------------------------------
$molecule
1 1
--
0 1
C    1.78663    0.00000    2.04933
Si   -0.00001   -0.00004   1.51826
C    -0.89319   -1.54730   2.04960
C    -0.89328   1.54715    2.04967
H    -0.00019   -0.00001   0.00505
H    2.31537    -0.88302   1.69382
H    2.31534    0.88302    1.69378
H    1.84726    0.00003    3.13750
H    -1.92240   1.56358    1.69425
H    -0.39297   2.44661    1.69422
H    -0.92348   1.59948    3.13785
H    -1.92237   -1.56369   1.69433
H    -0.39293   -2.44671   1.69396
H    -0.92323   -1.59978   3.13778
--
1 1
K    -0.00006   0.00005    -2.59410
$end

$rem
JOBTYPE  OPT
GEN_SCFMAN  TRUE
METHOD  WB97X-V
BASIS  DEF2-SVPD
UNRESTRICTED  FALSE
MAX_SCF_CYCLES  2000
THRESH  14
SCF_CONVERGENCE  9
MEM_TOTAL  8000
MEM_STATIC  2000
SCF_GUESS  FRAGMO
SYMMETRY  FALSE
SYM_IGNORE  FALSE
SCF_ALGORITHM  DIIS
BASIS_LIN_DEP_THRESH  6
IDERIV  1
XC_GRID  000075000302
NL_GRID  1
FD_MAT_VEC_PROD  FALSE
GEOM_OPT_TOL_GRADIENT  50
GEOM_OPT_TOL_DISPLACEMENT  50
GEOM_OPT_TOL_ENERGY  10
GEOM_OPT_DRIVER  OPTIMIZE
GEOM_OPT_MAX_CYCLES  200
$end

--------------------------------------------------------------
 ----------------------------------------------------------------
             Standard Nuclear Orientation (Angstroms)
    I     Atom           X                Y                Z
 ----------------------------------------------------------------
    1      C       1.5830738246     0.1623915216     1.7792295854
    2      Si      1.0519996724    -0.0000002362    -0.0000137926
    3      C       1.5833708176     1.4596309082    -1.0301729278
    4      C       1.5833743757    -1.6220104041    -0.7489121281
    5      H      -0.4612103283    -0.0000138020    -0.0001897705
    6      H       1.2275840133     1.0898353855     2.2254946876
    7      H       1.2275060942    -0.6688925975     2.3860348996
    8      H       2.6712439646     0.1678506873     1.8396107954
    9      H       1.2279516307    -1.7319332771    -1.7722756657
   10      H       1.2279062262    -2.4722485886    -0.1688944433
   11      H       2.6715531816    -1.6768929704    -0.7742295429
   12      H       1.2280987771     1.3823866399    -2.0565802435
   13      H       1.2277512920     2.4008074599    -0.6137600594
   14      H       2.6715518743     1.5091387778    -1.0648604332
   15      K      -3.0603603287    -0.0000056086    -0.0000539108
 ----------------------------------------------------------------
 Molecular Point Group                 C1    NOp =  1
 Largest Abelian Subgroup              C1    NOp =  1
 Nuclear Repulsion Energy =         267.35197248 hartrees
 There are       30 alpha and       30 beta electrons
 Requested basis set is def2-SVPD
 There are 85 shells and 191 basis functions

 Total QAlloc Memory Limit   8000 MB
 Mega-Array Size      1956 MB
 MEM_STATIC part      2000 MB

 A cutoff of  1.0D-14 yielded   3541 shell pairs
 There are     18093 function pairs (     20084 Cartesian)
 Smallest overlap matrix eigenvalue = 1.61E-04

 Scale SEOQF with 1.000000e-01/1.000000e-01/1.000000e-01

 Standard Electronic Orientation quadrupole field applied
 Nucleus-field energy     =     0.0000000077 hartrees
 Attempting to make child job directory: /scratch/qchem_scratch/qchem40205//Frg1/
 Attempting to make child job directory: /scratch/qchem_scratch/qchem40205//Frg2/
 Creating input file /scratch/qchem_scratch/qchem40205/Frg1.input
 using default PutDataFrgm: nothing
 calling putenv with: QCSCRATCH=/scratch/qchem_scratch/qchem40205/ 
 Spawning Job For Fragment 0
 Done Job For Fragment 0
 calling putenv with: QCSCRATCH=/scratch/qchem_scratch 
 calling putenv with: QCTHREADS=24 
 Creating input file /scratch/qchem_scratch/qchem40205/Frg2.input
 using default PutDataFrgm: nothing
 calling putenv with: QCSCRATCH=/scratch/qchem_scratch/qchem40205/ 
 Spawning Job For Fragment 1
 Done Job For Fragment 1
 calling putenv with: QCSCRATCH=/scratch/qchem_scratch 
 calling putenv with: QCTHREADS=24 
 Time for running child jobs:  CPU 3.94 s  wall 11.68 s
In frgmchild_fg_r_u. Opt. 5

 -----------------------------------------------------------------------
  General SCF calculation program by
  Eric Jon Sundstrom, Paul Horn, Yuezhi Mao, Dmitri Zuev, Alec White,
  David Stuck, Shaama M.S., Shane Yost, Joonho Lee, David Small,
  Daniel Levine, Susi Lehtola, Hugh Burton, Evgeny Epifanovsky,
  Bang C. Huynh
 -----------------------------------------------------------------------
 Exchange:     0.1670 Hartree-Fock + 1.0000 wB97X-V + LR-HF
 Correlation:  1.0000 wB97X-V
 Using Euler-Maclaurin-Lebedev (75,302) quadrature formula
 Nonlocal Correlation:  VV10 with C = 0.0100 and b = 6.00 and scale = 1.00000
 Grid used for NLC:  SG-1 standard quadrature
 using 24 threads for integral computing
 -------------------------------------------------------
 OpenMP Integral computing Module                
 Release: version 1.0, May 2013, Q-Chem Inc. Pittsburgh 
 -------------------------------------------------------
 A restricted SCF calculation will be
 performed using DIIS
 SCF converges when DIIS error is below 1.0e-09
 ---------------------------------------
  Cycle       Energy         DIIS error
 ---------------------------------------
    1   -1009.2050045554      1.55e-03  
    2   -1009.2148174863      2.89e-04  
    3   -1009.2155889806      1.04e-04  
    4   -1009.2156906188      3.12e-05  
    5   -1009.2157042095      1.11e-05  
    6   -1009.2157050843      2.01e-06  
    7   -1009.2157051380      3.46e-07  
    8   -1009.2157051399      8.24e-08  
    9   -1009.2157051399      2.15e-08  
   10   -1009.2157051400      3.23e-09  
   11   -1009.2157051400      4.28e-10  Convergence criterion met
 ---------------------------------------
 SCF time:   CPU 279.89s  wall 11.00s 
 SCF   energy in the final basis set =    -1009.2157051400
 Total energy in the final basis set =    -1009.2157051400
 
 --------------------------------------------------------------
 
                    Orbital Energies (a.u.)
 --------------------------------------------------------------
 
 Alpha MOs
 -- Occupied --
******** -66.2435 -13.5092 -10.8481 -10.8481 -10.8478 -10.3709 -10.3709
-10.3708  -5.4990  -3.8546  -3.8517  -3.8517  -1.7130  -1.0644  -1.0644
 -1.0629  -0.9573  -0.9147  -0.9147  -0.7176  -0.6442  -0.6310  -0.6310
 -0.6077  -0.6077  -0.5990  -0.5399  -0.5212  -0.5212
 -- Virtual --
 -0.1321  -0.0854  -0.0854  -0.0710  -0.0496  -0.0163  -0.0163  -0.0076
 -0.0027  -0.0027   0.0057   0.0336   0.0336   0.0425   0.0461   0.0461
  0.0624   0.0711   0.0711   0.0756   0.0945   0.0945   0.1049   0.1049
  0.1125   0.1125   0.1142   0.1244   0.1268   0.1550   0.1550   0.1973
  0.1973   0.2066   0.2067   0.2264   0.2304   0.2304   0.2648   0.2863
  0.2863   0.2900   0.2900   0.3098   0.3170   0.3203   0.3272   0.3272
  0.3410   0.3410   0.3478   0.3479   0.3590   0.3665   0.3665   0.3826
  0.3826   0.3838   0.4025   0.4152   0.4238   0.4238   0.4242   0.4487
  0.4488   0.4498   0.4568   0.4568   0.4695   0.4695   0.4820   0.4942
  0.4942   0.5025   0.5025   0.5200   0.5350   0.5351   0.5399   0.5690
  0.5878   0.5879   0.6155   0.6240   0.6240   0.6686   0.7418   0.7418
  0.8126   0.8216   0.8216   0.8726   0.8726   0.8887   0.9236   0.9413
  0.9413   0.9414   0.9661   0.9901   0.9901   1.0067   1.0067   1.0596
  1.0596   1.0614   1.1166   1.1509   1.1509   1.1763   1.1806   1.1806
  1.2463   1.3015   1.3015   1.3316   1.5734   1.5963   1.5963   1.6473
  1.6473   1.6842   1.7082   1.7082   1.7204   1.8052   1.8052   1.9249
  1.9288   1.9362   1.9362   1.9637   1.9637   1.9798   2.0111   2.0408
  2.0408   2.0576   2.1148   2.1148   2.1505   2.1505   2.2122   2.3530
  2.3922   2.3922   2.5284   2.5289   2.5289   2.5503   2.5503   2.5539
  2.8317   2.8317   2.8457   3.0944   3.1020   3.1020   3.1425   3.1425
  3.1592
 --------------------------------------------------------------
 
          Ground-State Mulliken Net Atomic Charges

     Atom                 Charge (a.u.)
  ----------------------------------------
      1 C                     0.251988
      2 Si                   -0.445570
      3 C                     0.251928
      4 C                     0.251968
      5 H                     0.114849
      6 H                    -0.053767
      7 H                    -0.053763
      8 H                    -0.027396
      9 H                    -0.053775
     10 H                    -0.053754
     11 H                    -0.027355
     12 H                    -0.053713
     13 H                    -0.053749
     14 H                    -0.027367
     15 K                     0.979476
  ----------------------------------------
  Sum of atomic charges =     1.000000

 -----------------------------------------------------------------
                    Cartesian Multipole Moments
 -----------------------------------------------------------------
    Charge (ESU x 10^10)
                 4.8032
    Dipole Moment (Debye)
         X     -11.5564      Y      -0.0000      Z      -0.0002
       Tot      11.5564
    Quadrupole Moments (Debye-Ang)
        XX       4.1168     XY       0.0001     YY     -42.7655
        XZ       0.0007     YZ       0.0000     ZZ     -42.7655
    Octopole Moments (Debye-Ang^2)
       XXX    -180.4043    XXY      -0.0001    XYY     -18.6373
       YYY       0.5040    XXZ      -0.0019    XYZ       0.0000
       YYZ       1.7998    XZZ     -18.6367    YZZ      -0.5044
       ZZZ      -1.8018
    Hexadecapole Moments (Debye-Ang^3)
      XXXX    -538.8721   XXXY       0.0017   XXYY    -214.8970
      XYYY       0.2748   YYYY    -301.3999   XXXZ       0.0137
      XXYZ       0.0001   XYYZ       0.9823   YYYZ       0.0000
      XXZZ    -214.8960   XYZZ      -0.2748   YYZZ    -100.4665
      XZZZ      -0.9794   YZZZ       0.0001   ZZZZ    -301.3988
 -----------------------------------------------------------------
 Calculating analytic gradient of the SCF energy
 Gradient of SCF Energy
            1           2           3           4           5           6
    1   0.0017853  -0.0023783   0.0017831   0.0017874   0.0083742   0.0026832
    2   0.0004335  -0.0000084   0.0038563  -0.0042805  -0.0000012  -0.0072680
    3   0.0047188  -0.0000339  -0.0027177  -0.0019661  -0.0000006  -0.0037662
            7           8           9          10          11          12
    1   0.0026935  -0.0083552   0.0026869   0.0026926  -0.0083564   0.0026818
    2   0.0064646  -0.0000580   0.0011041   0.0068952   0.0006260   0.0003811
    3  -0.0050142  -0.0006930   0.0081071  -0.0044035   0.0002877   0.0081712
           13          14          15
    1   0.0026861  -0.0083546  -0.0024094
    2  -0.0075759  -0.0005688   0.0000000
    3  -0.0030877   0.0003980   0.0000001
 Max gradient component =       8.374E-03
 RMS gradient           =       4.253E-03
 Gradient time:  CPU 150.67 s  wall 6.28 s
 Geometry Optimization Parameters
   NAtoms,    NIC,     NZ,  NCons,   NDum,   NFix, NCnnct, MaxDiis
       15      99       0       0       0       0       0       0


** GEOMETRY OPTIMIZATION IN DELOCALIZED INTERNAL COORDINATES **
   Searching for a Minimum

   Optimization Cycle:   1

                       Coordinates (Angstroms)
     ATOM                X               Y               Z
      1  C         1.5830738246    0.1623915216    1.7792295854
      2  Si        1.0519996724   -0.0000002362   -0.0000137926
      3  C         1.5833708176    1.4596309082   -1.0301729278
      4  C         1.5833743757   -1.6220104041   -0.7489121281
      5  H        -0.4612103283   -0.0000138020   -0.0001897705
      6  H         1.2275840133    1.0898353855    2.2254946876
      7  H         1.2275060942   -0.6688925975    2.3860348996
      8  H         2.6712439646    0.1678506873    1.8396107954
      9  H         1.2279516307   -1.7319332771   -1.7722756657
     10  H         1.2279062262   -2.4722485886   -0.1688944433
     11  H         2.6715531816   -1.6768929704   -0.7742295429
     12  H         1.2280987771    1.3823866399   -2.0565802435
     13  H         1.2277512920    2.4008074599   -0.6137600594
     14  H         2.6715518743    1.5091387778   -1.0648604332
     15  K        -3.0603603287   -0.0000056086   -0.0000539108
   Point Group: c1    Number of degrees of freedom:    39


   Energy is  -1009.215705140


 Attempting to generate delocalized internal coordinates
 Initial Hessian constructed with Jon Baker's OPTIMIZE code

 39 Hessian modes will be used to form the next step
  Hessian Eigenvalues:
     0.005848    0.005848    0.005848    0.022561    0.033546    0.050716
     0.050716    0.054926    0.054926    0.054926    0.057836    0.057836
     0.057836    0.160000    0.160000    0.160000    0.160000    0.160000
     0.160000    0.160000    0.160000    0.160000    0.162947    0.175010
     0.175010    0.200000    0.200000    0.216665    0.216666    0.216668
     0.348290    0.348291    0.348293    0.349404    0.349411    0.349412
     0.349414    0.349414    0.349416

 Minimum search - taking simple RFO step
 Searching for Lamda that Minimizes Along All modes
 Value Taken    Lamda =  -0.00265084
 Step Taken.  Stepsize is  0.131817

                             Maximum     Tolerance    Cnvgd?
         Gradient           0.023195      0.000050      NO
         Displacement       0.082620      0.000050      NO
         Energy change     *********      0.000000      NO


 New Cartesian Coordinates Obtained by Inverse Iteration

 Displacement from previous Coordinates is:  0.145690
 ----------------------------------------------------------------
             Standard Nuclear Orientation (Angstroms)
    I     Atom           X                Y                Z
 ----------------------------------------------------------------
    1      C       1.5815423038     0.1635288726     1.7914653011
    2      Si      1.0497848003     0.0000444682     0.0001020231
    3      C       1.5818191618     1.4695507297    -1.0372428756
    4      C       1.5817836497    -1.6330012388    -0.7540767077
    5      H      -0.4824860475    -0.0000456794    -0.0000853806
    6      H       1.2222177297     1.1016653844     2.2440345131
    7      H       1.2216672844    -0.6768898636     2.4064482459
    8      H       2.6821608239     0.1690463231     1.8555268825
    9      H       1.2224679470    -1.7450738832    -1.7896207831
   10      H       1.2220459831    -2.4941200100    -0.1683339258
   11      H       2.6824156496    -1.6912829184    -0.7807394370
   12      H       1.2225881792     1.3922446757    -2.0759977223
   13      H       1.2220086297     2.4224648997    -0.6171165565
   14      H       2.6824450843     1.5221435789    -1.0739697484
   15      K      -3.0310660919    -0.0002314432     0.0000332216
 ----------------------------------------------------------------
 Molecular Point Group                 C1    NOp =  1
 Largest Abelian Subgroup              C1    NOp =  1
 Nuclear Repulsion Energy =         266.52314707 hartrees
 There are       30 alpha and       30 beta electrons
 Applying Cartesian multipole field
    Component          Value
    ---------          -----
     (2,0,0)        1.00000E-11
     (0,2,0)        2.00000E-11
     (0,0,2)       -3.00000E-11
 Nucleus-field energy     =     0.0000000076 hartrees
 Requested basis set is def2-SVPD
 There are 85 shells and 191 basis functions
 A cutoff of  1.0D-14 yielded   3541 shell pairs
 There are     18093 function pairs (     20084 Cartesian)
 Smallest overlap matrix eigenvalue = 1.66E-04
 Read the previous MOs as SCF guess

 -----------------------------------------------------------------------
  General SCF calculation program by
  Eric Jon Sundstrom, Paul Horn, Yuezhi Mao, Dmitri Zuev, Alec White,
  David Stuck, Shaama M.S., Shane Yost, Joonho Lee, David Small,
  Daniel Levine, Susi Lehtola, Hugh Burton, Evgeny Epifanovsky,
  Bang C. Huynh
 -----------------------------------------------------------------------
 Exchange:     0.1670 Hartree-Fock + 1.0000 wB97X-V + LR-HF
 Correlation:  1.0000 wB97X-V
 Using Euler-Maclaurin-Lebedev (75,302) quadrature formula
 Nonlocal Correlation:  VV10 with C = 0.0100 and b = 6.00 and scale = 1.00000
 Grid used for NLC:  SG-1 standard quadrature
 A restricted SCF calculation will be
 performed using DIIS
 SCF converges when DIIS error is below 1.0e-09
 ---------------------------------------
  Cycle       Energy         DIIS error
 ---------------------------------------
    1   -1009.2167487317      3.92e-04  
    2   -1009.2170535492      6.98e-05  
    3   -1009.2170697802      4.22e-05  
    4   -1009.2170781121      3.07e-06  
    5   -1009.2170782156      4.57e-07  
    6   -1009.2170782186      1.23e-07  
    7   -1009.2170782188      2.83e-08  
    8   -1009.2170782188      6.43e-09  
    9   -1009.2170782188      1.38e-09  
   10   -1009.2170782188      5.24e-10  Convergence criterion met
 ---------------------------------------
 SCF time:   CPU 252.98s  wall 11.00s 
 SCF   energy in the final basis set =    -1009.2170782188
 Total energy in the final basis set =    -1009.2170782188
 
 --------------------------------------------------------------
 
                    Orbital Energies (a.u.)
 --------------------------------------------------------------
 
 Alpha MOs
 -- Occupied --
******** -66.2494 -13.5075 -10.8465 -10.8465 -10.8461 -10.3768 -10.3768
-10.3768  -5.5038  -3.8594  -3.8564  -3.8564  -1.7116  -1.0630  -1.0630
 -1.0616  -0.9541  -0.9118  -0.9118  -0.7167  -0.6419  -0.6286  -0.6286
 -0.6058  -0.6058  -0.5973  -0.5401  -0.5217  -0.5217
 -- Virtual --
 -0.1313  -0.0851  -0.0851  -0.0706  -0.0495  -0.0169  -0.0168  -0.0077
 -0.0027  -0.0027   0.0054   0.0334   0.0334   0.0405   0.0457   0.0457
  0.0604   0.0694   0.0694   0.0736   0.0935   0.0935   0.1031   0.1031
  0.1105   0.1105   0.1119   0.1218   0.1265   0.1547   0.1547   0.1938
  0.1938   0.2042   0.2044   0.2212   0.2279   0.2279   0.2646   0.2842
  0.2842   0.2867   0.2867   0.3082   0.3139   0.3172   0.3255   0.3255
  0.3386   0.3386   0.3452   0.3452   0.3544   0.3630   0.3630   0.3790
  0.3790   0.3801   0.4008   0.4123   0.4201   0.4215   0.4215   0.4454
  0.4462   0.4462   0.4550   0.4551   0.4664   0.4664   0.4799   0.4937
  0.4937   0.5003   0.5003   0.5177   0.5331   0.5331   0.5361   0.5659
  0.5891   0.5891   0.6126   0.6178   0.6178   0.6640   0.7418   0.7418
  0.8095   0.8170   0.8171   0.8692   0.8692   0.8860   0.9223   0.9368
  0.9368   0.9386   0.9598   0.9810   0.9811   0.9998   0.9999   1.0504
  1.0504   1.0582   1.1126   1.1480   1.1481   1.1717   1.1750   1.1751
  1.2416   1.2950   1.2950   1.3272   1.5734   1.5963   1.5963   1.6483
  1.6483   1.6846   1.7006   1.7007   1.7146   1.7996   1.7996   1.9123
  1.9129   1.9178   1.9178   1.9457   1.9458   1.9658   1.9908   2.0249
  2.0249   2.0358   2.0980   2.0980   2.1334   2.1335   2.1932   2.3373
  2.3758   2.3758   2.5067   2.5073   2.5073   2.5273   2.5273   2.5303
  2.8012   2.8012   2.8127   3.0740   3.0793   3.0793   3.1191   3.1192
  3.1346
 --------------------------------------------------------------
 
          Ground-State Mulliken Net Atomic Charges

     Atom                 Charge (a.u.)
  ----------------------------------------
      1 C                     0.150014
      2 Si                   -0.386358
      3 C                     0.150029
      4 C                     0.150006
      5 H                     0.091196
      6 H                    -0.022181
      7 H                    -0.022158
      8 H                     0.000203
      9 H                    -0.022181
     10 H                    -0.022234
     11 H                     0.000278
     12 H                    -0.022117
     13 H                    -0.022244
     14 H                     0.000273
     15 K                     0.977474
  ----------------------------------------
  Sum of atomic charges =     1.000000

 -----------------------------------------------------------------
                    Cartesian Multipole Moments
 -----------------------------------------------------------------
    Charge (ESU x 10^10)
                 4.8032
    Dipole Moment (Debye)
         X     -11.3308      Y      -0.0008      Z       0.0005
       Tot      11.3308
    Quadrupole Moments (Debye-Ang)
        XX       3.1798     XY       0.0037     YY     -42.7992
        XZ       0.0000     YZ       0.0001     ZZ     -42.7983
    Octopole Moments (Debye-Ang^2)
       XXX    -176.9582    XXY      -0.0081    XYY     -18.7985
       YYY       0.4930    XXZ       0.0014    XYZ       0.0001
       YYZ       1.7414    XZZ     -18.7959    YZZ      -0.4868
       ZZZ      -1.7495
    Hexadecapole Moments (Debye-Ang^3)
      XXXX    -546.1309   XXXY       0.0075   XXYY    -214.1954
      XYYY       0.1966   YYYY    -305.9279   XXXZ       0.0108
      XXYZ      -0.0019   XYYZ       0.7772   YYYZ      -0.0018
      XXZZ    -214.1992   XYZZ      -0.2231   YYZZ    -101.9870
      XZZZ      -0.7685   YZZZ      -0.0001   ZZZZ    -305.9689
 -----------------------------------------------------------------
 Calculating analytic gradient of the SCF energy
 Gradient of SCF Energy
            1           2           3           4           5           6
    1   0.0002682  -0.0007311   0.0002694   0.0002693   0.0016504  -0.0000894
    2   0.0000202  -0.0000021   0.0001827  -0.0001993  -0.0000058   0.0001275
    3   0.0002279  -0.0000092  -0.0001296  -0.0000913  -0.0000034  -0.0000191
            7           8           9          10          11          12
    1  -0.0000816   0.0001308  -0.0000856  -0.0000829   0.0001319  -0.0000870
    2  -0.0001264  -0.0000013   0.0000524  -0.0000462   0.0000698  -0.0000745
    3   0.0000055  -0.0000779  -0.0001097   0.0001250   0.0000307  -0.0001005
           13          14          15
    1  -0.0000879   0.0001297  -0.0016041
    2   0.0000660  -0.0000629  -0.0000002
    3   0.0001091   0.0000423   0.0000002
 Max gradient component =       1.650E-03
 RMS gradient           =       3.774E-04
 Gradient time:  CPU 150.66 s  wall 6.28 s
 Geometry Optimization Parameters
   NAtoms,    NIC,     NZ,  NCons,   NDum,   NFix, NCnnct, MaxDiis
       15      99       0       0       0       0       0       0

 Cartesian Hessian Update
 Hessian updated using BFGS update


** GEOMETRY OPTIMIZATION IN DELOCALIZED INTERNAL COORDINATES **
   Searching for a Minimum

   Optimization Cycle:   2

                       Coordinates (Angstroms)
     ATOM                X               Y               Z
      1  C         1.5815423038    0.1635288726    1.7914653011
      2  Si        1.0497848003    0.0000444682    0.0001020231
      3  C         1.5818191618    1.4695507297   -1.0372428756
      4  C         1.5817836497   -1.6330012388   -0.7540767077
      5  H        -0.4824860475   -0.0000456794   -0.0000853806
      6  H         1.2222177297    1.1016653844    2.2440345131
      7  H         1.2216672844   -0.6768898636    2.4064482459
      8  H         2.6821608239    0.1690463231    1.8555268825
      9  H         1.2224679470   -1.7450738832   -1.7896207831
     10  H         1.2220459831   -2.4941200100   -0.1683339258
     11  H         2.6824156496   -1.6912829184   -0.7807394370
     12  H         1.2225881792    1.3922446757   -2.0759977223
     13  H         1.2220086297    2.4224648997   -0.6171165565
     14  H         2.6824450843    1.5221435789   -1.0739697484
     15  K        -3.0310660919   -0.0002314432    0.0000332216
   Point Group: c1    Number of degrees of freedom:    39


   Energy is  -1009.217078219

 Hessian updated using BFGS update

 32 Hessian modes will be used to form the next step
  Hessian Eigenvalues:
     0.005848    0.005848    0.005848    0.020420    0.033491    0.050716
     0.050716    0.054925    0.054926    0.054926    0.057836    0.057836
     0.057836    0.159623    0.160000    0.163605    0.175009    0.175010
     0.200000    0.200000    0.216666    0.216667    0.220050    0.348290
     0.348292    0.348640    0.349406    0.349412    0.349413    0.349414
     0.349416    0.369054

 Minimum search - taking simple RFO step
 Searching for Lamda that Minimizes Along All modes
 Value Taken    Lamda =  -0.00012746
 Step Taken.  Stepsize is  0.078009

                             Maximum     Tolerance    Cnvgd?
         Gradient           0.001062      0.000050      NO
         Displacement       0.054136      0.000050      NO
         Energy change     -0.001373      0.000000      NO


 New Cartesian Coordinates Obtained by Inverse Iteration

 Displacement from previous Coordinates is:  0.079364
 ----------------------------------------------------------------
             Standard Nuclear Orientation (Angstroms)
    I     Atom           X                Y                Z
 ----------------------------------------------------------------
    1      C       1.5785904139     0.1636200489     1.7923470781
    2      Si      1.0497344327     0.0000747316     0.0001698769
    3      C       1.5788041316     1.4702004282    -1.0377575350
    4      C       1.5788022090    -1.6336878024    -0.7544632591
    5      H      -0.4834372664    -0.0000645645     0.0000145339
    6      H       1.2189640675     1.1019794254     2.2449613310
    7      H       1.2178192918    -0.6766880300     2.4075083506
    8      H       2.6793638857     0.1689955088     1.8588381336
    9      H       1.2191511286    -1.7455706468    -1.7902396769
   10      H       1.2182083482    -2.4950261463    -0.1689950904
   11      H       2.6795910451    -1.6942648792    -0.7818563927
   12      H       1.2191016743     1.3927225343    -2.0766642862
   13      H       1.2182471052     2.4232876219    -0.6178570443
   14      H       2.6795836770     1.5248654422    -1.0757623318
   15      K      -2.9911290571    -0.0003997760     0.0001833625
 ----------------------------------------------------------------
 Molecular Point Group                 C1    NOp =  1
 Largest Abelian Subgroup              C1    NOp =  1
 Nuclear Repulsion Energy =         267.31367134 hartrees
 There are       30 alpha and       30 beta electrons
 Applying Cartesian multipole field
    Component          Value
    ---------          -----
     (2,0,0)        1.00000E-11
     (0,2,0)        2.00000E-11
     (0,0,2)       -3.00000E-11
 Nucleus-field energy     =     0.0000000074 hartrees
 Requested basis set is def2-SVPD
 There are 85 shells and 191 basis functions
 A cutoff of  1.0D-14 yielded   3544 shell pairs
 There are     18096 function pairs (     20087 Cartesian)
 Smallest overlap matrix eigenvalue = 1.64E-04
 Read the previous MOs as SCF guess

 -----------------------------------------------------------------------
  General SCF calculation program by
  Eric Jon Sundstrom, Paul Horn, Yuezhi Mao, Dmitri Zuev, Alec White,
  David Stuck, Shaama M.S., Shane Yost, Joonho Lee, David Small,
  Daniel Levine, Susi Lehtola, Hugh Burton, Evgeny Epifanovsky,
  Bang C. Huynh
 -----------------------------------------------------------------------
 Exchange:     0.1670 Hartree-Fock + 1.0000 wB97X-V + LR-HF
 Correlation:  1.0000 wB97X-V
 Using Euler-Maclaurin-Lebedev (75,302) quadrature formula
 Nonlocal Correlation:  VV10 with C = 0.0100 and b = 6.00 and scale = 1.00000
 Grid used for NLC:  SG-1 standard quadrature
 A restricted SCF calculation will be
 performed using DIIS
 SCF converges when DIIS error is below 1.0e-09
 ---------------------------------------
  Cycle       Energy         DIIS error
 ---------------------------------------
    1   -1009.2171593765      1.23e-04  
    2   -1009.2171736064      6.77e-06  
    3   -1009.2171740542      2.06e-06  
    4   -1009.2171740881      9.31e-07  
    5   -1009.2171740939      1.80e-07  
    6   -1009.2171740941      3.99e-08  
    7   -1009.2171740941      6.31e-09  
    8   -1009.2171740941      1.68e-09  
    9   -1009.2171740941      4.93e-10  Convergence criterion met
 ---------------------------------------
 SCF time:   CPU 223.71s  wall 10.00s 
 SCF   energy in the final basis set =    -1009.2171740941
 Total energy in the final basis set =    -1009.2171740941
 
 --------------------------------------------------------------
 
                    Orbital Energies (a.u.)
 --------------------------------------------------------------
 
 Alpha MOs
 -- Occupied --
******** -66.2506 -13.5063 -10.8452 -10.8452 -10.8449 -10.3778 -10.3778
-10.3777  -5.5049  -3.8606  -3.8576  -3.8576  -1.7105  -1.0620  -1.0620
 -1.0607  -0.9549  -0.9126  -0.9126  -0.7178  -0.6427  -0.6293  -0.6293
 -0.6065  -0.6065  -0.5980  -0.5412  -0.5228  -0.5228
 -- Virtual --
 -0.1308  -0.0850  -0.0850  -0.0704  -0.0493  -0.0172  -0.0172  -0.0077
 -0.0025  -0.0025   0.0056   0.0330   0.0330   0.0406   0.0457   0.0457
  0.0597   0.0690   0.0690   0.0733   0.0939   0.0939   0.1025   0.1025
  0.1103   0.1104   0.1112   0.1211   0.1273   0.1554   0.1554   0.1930
  0.1931   0.2033   0.2049   0.2177   0.2271   0.2271   0.2647   0.2837
  0.2837   0.2870   0.2870   0.3083   0.3133   0.3179   0.3254   0.3254
  0.3384   0.3384   0.3449   0.3449   0.3535   0.3619   0.3619   0.3780
  0.3780   0.3792   0.3990   0.4138   0.4195   0.4214   0.4214   0.4446
  0.4450   0.4450   0.4553   0.4553   0.4650   0.4650   0.4788   0.4940
  0.4940   0.4998   0.4999   0.5168   0.5336   0.5336   0.5356   0.5655
  0.5911   0.5911   0.6138   0.6167   0.6167   0.6630   0.7419   0.7419
  0.8092   0.8166   0.8166   0.8685   0.8686   0.8864   0.9229   0.9366
  0.9366   0.9378   0.9588   0.9800   0.9802   0.9989   0.9989   1.0492
  1.0493   1.0578   1.1132   1.1475   1.1476   1.1703   1.1739   1.1741
  1.2415   1.2949   1.2949   1.3264   1.5727   1.5957   1.5957   1.6477
  1.6478   1.6842   1.6994   1.6994   1.7138   1.7986   1.7986   1.9111
  1.9113   1.9171   1.9171   1.9444   1.9445   1.9650   1.9893   2.0239
  2.0239   2.0340   2.0966   2.0966   2.1322   2.1323   2.1908   2.3367
  2.3752   2.3752   2.5052   2.5060   2.5060   2.5260   2.5260   2.5288
  2.7995   2.7996   2.8109   3.0732   3.0784   3.0784   3.1179   3.1179
  3.1335
 --------------------------------------------------------------
 
          Ground-State Mulliken Net Atomic Charges

     Atom                 Charge (a.u.)
  ----------------------------------------
      1 C                     0.150981
      2 Si                   -0.375700
      3 C                     0.151037
      4 C                     0.150994
      5 H                     0.073860
      6 H                    -0.021567
      7 H                    -0.021500
      8 H                     0.000406
      9 H                    -0.021534
     10 H                    -0.021656
     11 H                     0.000516
     12 H                    -0.021464
     13 H                    -0.021672
     14 H                     0.000554
     15 K                     0.976744
  ----------------------------------------
  Sum of atomic charges =     1.000000

 -----------------------------------------------------------------
                    Cartesian Multipole Moments
 -----------------------------------------------------------------
    Charge (ESU x 10^10)
                 4.8032
    Dipole Moment (Debye)
         X     -11.1045      Y      -0.0014      Z       0.0013
       Tot      11.1045
    Quadrupole Moments (Debye-Ang)
        XX       2.0648     XY       0.0062     YY     -42.7561
        XZ      -0.0017     YZ       0.0001     ZZ     -42.7548
    Octopole Moments (Debye-Ang^2)
       XXX    -172.4014    XXY      -0.0142    XYY     -18.9923
       YYY       0.4837    XXZ       0.0070    XYZ       0.0003
       YYZ       1.6932    XZZ     -18.9886    YZZ      -0.4726
       ZZZ      -1.7084
    Hexadecapole Moments (Debye-Ang^3)
      XXXX    -552.7556   XXXY       0.0099   XXYY    -211.6789
      XYYY       0.1555   YYYY    -305.8609   XXXZ       0.0069
      XXYZ      -0.0035   XYYZ       0.6779   YYYZ      -0.0017
      XXZZ    -211.6879   XYZZ      -0.1982   YYZZ    -101.9742
      XZZZ      -0.6572   YZZZ       0.0007   ZZZZ    -305.9338
 -----------------------------------------------------------------
 Calculating analytic gradient of the SCF energy
 Gradient of SCF Energy
            1           2           3           4           5           6
    1   0.0000968  -0.0004113   0.0000991   0.0000982   0.0007202  -0.0001241
    2  -0.0000017   0.0000013  -0.0000185   0.0000203  -0.0000078   0.0002696
    3  -0.0000183  -0.0000025   0.0000104   0.0000094  -0.0000035   0.0001244
            7           8           9          10          11          12
    1  -0.0001190   0.0003102  -0.0001211  -0.0001196   0.0003112  -0.0001229
    2  -0.0002398   0.0000037  -0.0000331  -0.0002410   0.0000242  -0.0000241
    3   0.0001715  -0.0000267  -0.0002922   0.0001754   0.0000098  -0.0002955
           13          14          15
    1  -0.0001241   0.0003092  -0.0008029
    2   0.0002678  -0.0000208  -0.0000002
    3   0.0001247   0.0000130   0.0000003
 Max gradient component =       8.029E-04
 RMS gradient           =       2.245E-04
 Gradient time:  CPU 151.09 s  wall 6.30 s
 Geometry Optimization Parameters
   NAtoms,    NIC,     NZ,  NCons,   NDum,   NFix, NCnnct, MaxDiis
       15      99       0       0       0       0       0       0

 Cartesian Hessian Update
 Hessian updated using BFGS update


** GEOMETRY OPTIMIZATION IN DELOCALIZED INTERNAL COORDINATES **
   Searching for a Minimum

   Optimization Cycle:   3

                       Coordinates (Angstroms)
     ATOM                X               Y               Z
      1  C         1.5785904139    0.1636200489    1.7923470781
      2  Si        1.0497344327    0.0000747316    0.0001698769
      3  C         1.5788041316    1.4702004282   -1.0377575350
      4  C         1.5788022090   -1.6336878024   -0.7544632591
      5  H        -0.4834372664   -0.0000645645    0.0000145339
      6  H         1.2189640675    1.1019794254    2.2449613310
      7  H         1.2178192918   -0.6766880300    2.4075083506
      8  H         2.6793638857    0.1689955088    1.8588381336
      9  H         1.2191511286   -1.7455706468   -1.7902396769
     10  H         1.2182083482   -2.4950261463   -0.1689950904
     11  H         2.6795910451   -1.6942648792   -0.7818563927
     12  H         1.2191016743    1.3927225343   -2.0766642862
     13  H         1.2182471052    2.4232876219   -0.6178570443
     14  H         2.6795836770    1.5248654422   -1.0757623318
     15  K        -2.9911290571   -0.0003997760    0.0001833625
   Point Group: c1    Number of degrees of freedom:    39


   Energy is  -1009.217174094

 Hessian updated using BFGS update

 33 Hessian modes will be used to form the next step
  Hessian Eigenvalues:
     0.005845    0.005848    0.005848    0.010472    0.033308    0.050716
     0.050716    0.054925    0.054926    0.054926    0.057836    0.057836
     0.057836    0.159592    0.160000    0.160298    0.163679    0.175007
     0.175011    0.199999    0.200000    0.216666    0.216667    0.219506
     0.348290    0.348292    0.348639    0.349406    0.349412    0.349413
     0.349414    0.349416    0.372344

 Minimum search - taking simple RFO step
 Searching for Lamda that Minimizes Along All modes
 Value Taken    Lamda =  -0.00006760
 Step Taken.  Stepsize is  0.078001

                             Maximum     Tolerance    Cnvgd?
         Gradient           0.000966      0.000050      NO
         Displacement       0.052808      0.000050      NO
         Energy change     -0.000096      0.000000      NO


 New Cartesian Coordinates Obtained by Inverse Iteration

 Displacement from previous Coordinates is:  0.081375
 ----------------------------------------------------------------
             Standard Nuclear Orientation (Angstroms)
    I     Atom           X                Y                Z
 ----------------------------------------------------------------
    1      C       1.5756467598     0.1636335276     1.7924961950
    2      Si      1.0502235769     0.0001131057     0.0002459435
    3      C       1.5757481610     1.4702466485    -1.0378630652
    4      C       1.5758410777    -1.6336773387    -0.7545410852
    5      H      -0.4832457636    -0.0000728497     0.0001566133
    6      H       1.2158133637     1.1018112334     2.2443376472
    7      H       1.2137074527    -0.6761076568     2.4070254254
    8      H       2.6758620220     0.1686606231     1.8617956674
    9      H       1.2159040902    -1.7447140551    -1.7898809021
   10      H       1.2141853932    -2.4943549065    -0.1695202676
   11      H       2.6760756074    -1.6969288057    -0.7826668662
   12      H       1.2155516922     1.3920946258    -2.0761216027
   13      H       1.2142737712     2.4226060170    -0.6181648328
   14      H       2.6759668832     1.5273405075    -1.0772962123
   15      K      -2.9501590005    -0.0006067803     0.0004243926
 ----------------------------------------------------------------
 Molecular Point Group                 C1    NOp =  1
 Largest Abelian Subgroup              C1    NOp =  1
 Nuclear Repulsion Energy =         268.22665212 hartrees
 There are       30 alpha and       30 beta electrons
 Applying Cartesian multipole field
    Component          Value
    ---------          -----
     (2,0,0)        1.00000E-11
     (0,2,0)        2.00000E-11
     (0,0,2)       -3.00000E-11
 Nucleus-field energy     =     0.0000000072 hartrees
 Requested basis set is def2-SVPD
 There are 85 shells and 191 basis functions
 A cutoff of  1.0D-14 yielded   3547 shell pairs
 There are     18141 function pairs (     20141 Cartesian)
 Smallest overlap matrix eigenvalue = 1.60E-04
 Read the previous MOs as SCF guess

 -----------------------------------------------------------------------
  General SCF calculation program by
  Eric Jon Sundstrom, Paul Horn, Yuezhi Mao, Dmitri Zuev, Alec White,
  David Stuck, Shaama M.S., Shane Yost, Joonho Lee, David Small,
  Daniel Levine, Susi Lehtola, Hugh Burton, Evgeny Epifanovsky,
  Bang C. Huynh
 -----------------------------------------------------------------------
 Exchange:     0.1670 Hartree-Fock + 1.0000 wB97X-V + LR-HF
 Correlation:  1.0000 wB97X-V
 Using Euler-Maclaurin-Lebedev (75,302) quadrature formula
 Nonlocal Correlation:  VV10 with C = 0.0100 and b = 6.00 and scale = 1.00000
 Grid used for NLC:  SG-1 standard quadrature
 A restricted SCF calculation will be
 performed using DIIS
 SCF converges when DIIS error is below 1.0e-09
 ---------------------------------------
  Cycle       Energy         DIIS error
 ---------------------------------------
    1   -1009.2171865102      1.25e-04  
    2   -1009.2172029878      7.99e-06  
    3   -1009.2172035526      2.68e-06  
    4   -1009.2172036013      1.18e-06  
    5   -1009.2172036102      1.98e-07  
    6   -1009.2172036105      4.30e-08  
    7   -1009.2172036105      6.86e-09  
    8   -1009.2172036105      1.95e-09  
    9   -1009.2172036105      5.31e-10  Convergence criterion met
 ---------------------------------------
 SCF time:   CPU 220.90s  wall 9.00s 
 SCF   energy in the final basis set =    -1009.2172036105
 Total energy in the final basis set =    -1009.2172036105
 
 --------------------------------------------------------------
 
                    Orbital Energies (a.u.)
 --------------------------------------------------------------
 
 Alpha MOs
 -- Occupied --
******** -66.2516 -13.5051 -10.8440 -10.8440 -10.8437 -10.3785 -10.3785
-10.3784  -5.5059  -3.8616  -3.8585  -3.8585  -1.7095  -1.0610  -1.0610
 -1.0598  -0.9560  -0.9136  -0.9136  -0.7190  -0.6436  -0.6303  -0.6303
 -0.6074  -0.6074  -0.5990  -0.5424  -0.5239  -0.5239
 -- Virtual --
 -0.1303  -0.0849  -0.0849  -0.0701  -0.0492  -0.0175  -0.0175  -0.0076
 -0.0024  -0.0024   0.0059   0.0326   0.0327   0.0408   0.0457   0.0457
  0.0592   0.0686   0.0687   0.0732   0.0944   0.0944   0.1020   0.1020
  0.1103   0.1103   0.1106   0.1205   0.1283   0.1563   0.1564   0.1924
  0.1924   0.2026   0.2056   0.2146   0.2263   0.2264   0.2647   0.2833
  0.2833   0.2874   0.2875   0.3080   0.3127   0.3194   0.3254   0.3254
  0.3382   0.3382   0.3448   0.3448   0.3528   0.3609   0.3609   0.3772
  0.3772   0.3785   0.3971   0.4158   0.4193   0.4214   0.4214   0.4437
  0.4438   0.4440   0.4557   0.4558   0.4637   0.4638   0.4777   0.4941
  0.4941   0.4997   0.4997   0.5160   0.5342   0.5343   0.5353   0.5655
  0.5931   0.5932   0.6151   0.6159   0.6160   0.6623   0.7420   0.7420
  0.8090   0.8162   0.8163   0.8680   0.8681   0.8870   0.9235   0.9367
  0.9367   0.9371   0.9580   0.9796   0.9798   0.9983   0.9983   1.0486
  1.0487   1.0577   1.1141   1.1471   1.1472   1.1691   1.1731   1.1733
  1.2415   1.2953   1.2953   1.3258   1.5719   1.5950   1.5950   1.6469
  1.6470   1.6837   1.6984   1.6985   1.7132   1.7980   1.7980   1.9104
  1.9107   1.9172   1.9174   1.9438   1.9441   1.9651   1.9889   2.0239
  2.0239   2.0333   2.0960   2.0961   2.1321   2.1322   2.1889   2.3367
  2.3753   2.3754   2.5049   2.5057   2.5057   2.5260   2.5261   2.5284
  2.7996   2.7996   2.8109   3.0735   3.0786   3.0787   3.1178   3.1178
  3.1335
 --------------------------------------------------------------
 
          Ground-State Mulliken Net Atomic Charges

     Atom                 Charge (a.u.)
  ----------------------------------------
      1 C                     0.157400
      2 Si                   -0.368714
      3 C                     0.157523
      4 C                     0.157452
      5 H                     0.057352
      6 H                    -0.022425
      7 H                    -0.022289
      8 H                    -0.000961
      9 H                    -0.022351
     10 H                    -0.022559
     11 H                    -0.000793
     12 H                    -0.022269
     13 H                    -0.022597
     14 H                    -0.000694
     15 K                     0.975925
  ----------------------------------------
  Sum of atomic charges =     1.000000

 -----------------------------------------------------------------
                    Cartesian Multipole Moments
 -----------------------------------------------------------------
    Charge (ESU x 10^10)
                 4.8032
    Dipole Moment (Debye)
         X     -10.8758      Y      -0.0022      Z       0.0023
       Tot      10.8758
    Quadrupole Moments (Debye-Ang)
        XX       0.9462     XY       0.0091     YY     -42.7096
        XZ      -0.0047     YZ       0.0000     ZZ     -42.7080
    Octopole Moments (Debye-Ang^2)
       XXX    -167.8826    XXY      -0.0219    XYY     -19.1978
       YYY       0.4780    XXZ       0.0155    XYZ       0.0005
       YYZ       1.6533    XZZ     -19.1930    YZZ      -0.4607
       ZZZ      -1.6793
    Hexadecapole Moments (Debye-Ang^3)
      XXXX    -558.8091   XXXY       0.0113   XXYY    -209.0627
      XYYY       0.1181   YYYY    -305.5215   XXXZ       0.0025
      XXYZ      -0.0057   XYYZ       0.5945   YYYZ       0.0004
      XXZZ    -209.0793   XYZZ      -0.1771   YYZZ    -101.8739
      XZZZ      -0.5545   YZZZ       0.0035   ZZZZ    -305.6353
 -----------------------------------------------------------------
 Calculating analytic gradient of the SCF energy
 Gradient of SCF Energy
            1           2           3           4           5           6
    1  -0.0000179  -0.0000148  -0.0000159  -0.0000160  -0.0001660  -0.0000131
    2  -0.0000042   0.0000038  -0.0000457   0.0000488  -0.0000090   0.0000360
    3  -0.0000540   0.0000015   0.0000292   0.0000231  -0.0000025   0.0000375
            7           8           9          10          11          12
    1  -0.0000093   0.0000505  -0.0000105  -0.0000091   0.0000517  -0.0000126
    2  -0.0000256   0.0000046  -0.0000269  -0.0000493   0.0000065   0.0000154
    3   0.0000437  -0.0000069  -0.0000433   0.0000148   0.0000025  -0.0000496
           13          14          15
    1  -0.0000131   0.0000492   0.0001469
    2   0.0000506  -0.0000051  -0.0000001
    3   0.0000017   0.0000021   0.0000003
 Max gradient component =       1.660E-04
 RMS gradient           =       4.306E-05
 Gradient time:  CPU 151.49 s  wall 6.32 s
 Geometry Optimization Parameters
   NAtoms,    NIC,     NZ,  NCons,   NDum,   NFix, NCnnct, MaxDiis
       15      99       0       0       0       0       0       0

 Cartesian Hessian Update
 Hessian updated using BFGS update


** GEOMETRY OPTIMIZATION IN DELOCALIZED INTERNAL COORDINATES **
   Searching for a Minimum

   Optimization Cycle:   4

                       Coordinates (Angstroms)
     ATOM                X               Y               Z
      1  C         1.5756467598    0.1636335276    1.7924961950
      2  Si        1.0502235769    0.0001131057    0.0002459435
      3  C         1.5757481610    1.4702466485   -1.0378630652
      4  C         1.5758410777   -1.6336773387   -0.7545410852
      5  H        -0.4832457636   -0.0000728497    0.0001566133
      6  H         1.2158133637    1.1018112334    2.2443376472
      7  H         1.2137074527   -0.6761076568    2.4070254254
      8  H         2.6758620220    0.1686606231    1.8617956674
      9  H         1.2159040902   -1.7447140551   -1.7898809021
     10  H         1.2141853932   -2.4943549065   -0.1695202676
     11  H         2.6760756074   -1.6969288057   -0.7826668662
     12  H         1.2155516922    1.3920946258   -2.0761216027
     13  H         1.2142737712    2.4226060170   -0.6181648328
     14  H         2.6759668832    1.5273405075   -1.0772962123
     15  K        -2.9501590005   -0.0006067803    0.0004243926
   Point Group: c1    Number of degrees of freedom:    39


   Energy is  -1009.217203610

 Hessian updated using BFGS update

 33 Hessian modes will be used to form the next step
  Hessian Eigenvalues:
     0.005843    0.005848    0.005848    0.012427    0.033233    0.050716
     0.054926    0.054926    0.054929    0.057836    0.057836    0.057836
     0.159529    0.160000    0.160000    0.160373    0.163652    0.175005
     0.175011    0.199998    0.200000    0.216665    0.216667    0.218732
     0.348290    0.348292    0.348634    0.349406    0.349412    0.349413
     0.349414    0.349416    0.366933

 Minimum search - taking simple RFO step
 Searching for Lamda that Minimizes Along All modes
 Value Taken    Lamda =  -0.00000178
 Step Taken.  Stepsize is  0.011389

                             Maximum     Tolerance    Cnvgd?
         Gradient           0.000142      0.000050      NO
         Displacement       0.008589      0.000050      NO
         Energy change     -0.000030      0.000000      NO


 New Cartesian Coordinates Obtained by Inverse Iteration

 Displacement from previous Coordinates is:  0.010687
 ----------------------------------------------------------------
             Standard Nuclear Orientation (Angstroms)
    I     Atom           X                Y                Z
 ----------------------------------------------------------------
    1      C       1.5760910834     0.1636296444     1.7924900019
    2      Si      1.0506809566     0.0001189465     0.0002486875
    3      C       1.5761670799     1.4702439013    -1.0378660024
    4      C       1.5762832810    -1.6336583107    -0.7545405704
    5      H      -0.4826673755    -0.0000673548     0.0001750580
    6      H       1.2162643876     1.1018282087     2.2441302024
    7      H       1.2139465000    -0.6760504499     2.4068628576
    8      H       2.6762307003     0.1685314210     1.8618968225
    9      H       1.2163138745    -1.7445006529    -1.7898192411
   10      H       1.2144691134    -2.4941819795    -0.1695171814
   11      H       2.6764427348    -1.6970238351    -0.7826342041
   12      H       1.2159086270     1.3919158336    -2.0760194283
   13      H       1.2145446659     2.4224500375    -0.6181239240
   14      H       2.6763097945     1.5274548052    -1.0773214200
   15      K      -2.9555903362    -0.0006463194     0.0004653919
 ----------------------------------------------------------------
 Molecular Point Group                 C1    NOp =  1
 Largest Abelian Subgroup              C1    NOp =  1
 Nuclear Repulsion Energy =         268.11111925 hartrees
 There are       30 alpha and       30 beta electrons
 Applying Cartesian multipole field
    Component          Value
    ---------          -----
     (2,0,0)        1.00000E-11
     (0,2,0)        2.00000E-11
     (0,0,2)       -3.00000E-11
 Nucleus-field energy     =     0.0000000073 hartrees
 Requested basis set is def2-SVPD
 There are 85 shells and 191 basis functions
 A cutoff of  1.0D-14 yielded   3547 shell pairs
 There are     18141 function pairs (     20141 Cartesian)
 Smallest overlap matrix eigenvalue = 1.61E-04
 Read the previous MOs as SCF guess

 -----------------------------------------------------------------------
  General SCF calculation program by
  Eric Jon Sundstrom, Paul Horn, Yuezhi Mao, Dmitri Zuev, Alec White,
  David Stuck, Shaama M.S., Shane Yost, Joonho Lee, David Small,
  Daniel Levine, Susi Lehtola, Hugh Burton, Evgeny Epifanovsky,
  Bang C. Huynh
 -----------------------------------------------------------------------
 Exchange:     0.1670 Hartree-Fock + 1.0000 wB97X-V + LR-HF
 Correlation:  1.0000 wB97X-V
 Using Euler-Maclaurin-Lebedev (75,302) quadrature formula
 Nonlocal Correlation:  VV10 with C = 0.0100 and b = 6.00 and scale = 1.00000
 Grid used for NLC:  SG-1 standard quadrature
 A restricted SCF calculation will be
 performed using DIIS
 SCF converges when DIIS error is below 1.0e-09
 ---------------------------------------
  Cycle       Energy         DIIS error
 ---------------------------------------
    1   -1009.2172041969      1.80e-05  
    2   -1009.2172044786      1.06e-06  
    3   -1009.2172044873      4.48e-07  
    4   -1009.2172044884      1.45e-07  
    5   -1009.2172044886      2.88e-08  
    6   -1009.2172044886      4.74e-09  
    7   -1009.2172044886      8.68e-10  Convergence criterion met
 ---------------------------------------
 SCF time:   CPU 173.33s  wall 7.00s 
 SCF   energy in the final basis set =    -1009.2172044886
 Total energy in the final basis set =    -1009.2172044886
 
 --------------------------------------------------------------
 
                    Orbital Energies (a.u.)
 --------------------------------------------------------------
 
 Alpha MOs
 -- Occupied --
******** -66.2514 -13.5053 -10.8442 -10.8442 -10.8438 -10.3783 -10.3783
-10.3783  -5.5057  -3.8614  -3.8584  -3.8584  -1.7096  -1.0611  -1.0611
 -1.0599  -0.9559  -0.9135  -0.9135  -0.7188  -0.6435  -0.6302  -0.6302
 -0.6073  -0.6073  -0.5989  -0.5422  -0.5237  -0.5237
 -- Virtual --
 -0.1304  -0.0849  -0.0849  -0.0701  -0.0492  -0.0175  -0.0175  -0.0076
 -0.0024  -0.0024   0.0059   0.0327   0.0327   0.0408   0.0457   0.0457
  0.0592   0.0687   0.0687   0.0732   0.0943   0.0944   0.1020   0.1021
  0.1103   0.1103   0.1106   0.1206   0.1281   0.1562   0.1563   0.1925
  0.1925   0.2027   0.2055   0.2150   0.2265   0.2266   0.2647   0.2834
  0.2834   0.2874   0.2874   0.3080   0.3128   0.3192   0.3254   0.3254
  0.3382   0.3383   0.3448   0.3449   0.3530   0.3610   0.3611   0.3773
  0.3773   0.3787   0.3972   0.4155   0.4194   0.4214   0.4214   0.4438
  0.4440   0.4441   0.4557   0.4558   0.4639   0.4640   0.4779   0.4941
  0.4941   0.4997   0.4997   0.5161   0.5341   0.5342   0.5354   0.5656
  0.5928   0.5929   0.6150   0.6161   0.6161   0.6624   0.7419   0.7420
  0.8090   0.8163   0.8163   0.8681   0.8681   0.8871   0.9235   0.9367
  0.9368   0.9372   0.9580   0.9797   0.9800   0.9984   0.9985   1.0487
  1.0488   1.0577   1.1141   1.1471   1.1473   1.1692   1.1732   1.1735
  1.2416   1.2953   1.2954   1.3258   1.5720   1.5951   1.5951   1.6470
  1.6471   1.6838   1.6985   1.6986   1.7133   1.7982   1.7982   1.9106
  1.9108   1.9174   1.9175   1.9440   1.9443   1.9652   1.9891   2.0241
  2.0241   2.0335   2.0962   2.0963   2.1323   2.1324   2.1893   2.3368
  2.3754   2.3755   2.5051   2.5059   2.5059   2.5263   2.5263   2.5286
  2.7999   2.7999   2.8112   3.0736   3.0788   3.0789   3.1180   3.1180
  3.1337
 --------------------------------------------------------------
 
          Ground-State Mulliken Net Atomic Charges

     Atom                 Charge (a.u.)
  ----------------------------------------
      1 C                     0.157408
      2 Si                   -0.370265
      3 C                     0.157541
      4 C                     0.157465
      5 H                     0.059783
      6 H                    -0.022498
      7 H                    -0.022347
      8 H                    -0.001182
      9 H                    -0.022420
     10 H                    -0.022630
     11 H                    -0.001005
     12 H                    -0.022333
     13 H                    -0.022675
     14 H                    -0.000894
     15 K                     0.976052
  ----------------------------------------
  Sum of atomic charges =     1.000000

 -----------------------------------------------------------------
                    Cartesian Multipole Moments
 -----------------------------------------------------------------
    Charge (ESU x 10^10)
                 4.8032
    Dipole Moment (Debye)
         X     -10.9059      Y      -0.0024      Z       0.0025
       Tot      10.9059
    Quadrupole Moments (Debye-Ang)
        XX       1.0966     XY       0.0097     YY     -42.7150
        XZ      -0.0053     YZ       0.0000     ZZ     -42.7134
    Octopole Moments (Debye-Ang^2)
       XXX    -168.4872    XXY      -0.0237    XYY     -19.1746
       YYY       0.4806    XXZ       0.0170    XYZ       0.0005
       YYZ       1.6591    XZZ     -19.1698    YZZ      -0.4622
       ZZZ      -1.6867
    Hexadecapole Moments (Debye-Ang^3)
      XXXX    -558.0827   XXXY       0.0123   XXYY    -209.4042
      XYYY       0.1189   YYYY    -305.5544   XXXZ       0.0013
      XXYZ      -0.0060   XYYZ       0.6068   YYYZ       0.0014
      XXZZ    -209.4217   XYZZ      -0.1811   YYZZ    -101.8862
      XZZZ      -0.5635   YZZZ       0.0043   ZZZZ    -305.6714
 -----------------------------------------------------------------
 Calculating analytic gradient of the SCF energy
 Gradient of SCF Energy
            1           2           3           4           5           6
    1  -0.0000090  -0.0000134  -0.0000078  -0.0000070   0.0000108  -0.0000006
    2   0.0000006   0.0000035  -0.0000048   0.0000041  -0.0000087   0.0000041
    3  -0.0000041   0.0000004   0.0000010   0.0000029  -0.0000022   0.0000103
            7           8           9          10          11          12
    1   0.0000032   0.0000077   0.0000021   0.0000035   0.0000089  -0.0000001
    2   0.0000009   0.0000036  -0.0000119  -0.0000101   0.0000123   0.0000078
    3   0.0000114  -0.0000133  -0.0000043   0.0000003   0.0000054  -0.0000085
           13          14          15
    1  -0.0000005   0.0000064  -0.0000043
    2   0.0000093  -0.0000105  -0.0000001
    3  -0.0000054   0.0000058   0.0000003
 Max gradient component =       1.335E-05
 RMS gradient           =       6.908E-06
 Gradient time:  CPU 151.57 s  wall 6.32 s
 Geometry Optimization Parameters
   NAtoms,    NIC,     NZ,  NCons,   NDum,   NFix, NCnnct, MaxDiis
       15      99       0       0       0       0       0       0

 Cartesian Hessian Update
 Hessian updated using BFGS update


** GEOMETRY OPTIMIZATION IN DELOCALIZED INTERNAL COORDINATES **
   Searching for a Minimum

   Optimization Cycle:   5

                       Coordinates (Angstroms)
     ATOM                X               Y               Z
      1  C         1.5760910834    0.1636296444    1.7924900019
      2  Si        1.0506809566    0.0001189465    0.0002486875
      3  C         1.5761670799    1.4702439013   -1.0378660024
      4  C         1.5762832810   -1.6336583107   -0.7545405704
      5  H        -0.4826673755   -0.0000673548    0.0001750580
      6  H         1.2162643876    1.1018282087    2.2441302024
      7  H         1.2139465000   -0.6760504499    2.4068628576
      8  H         2.6762307003    0.1685314210    1.8618968225
      9  H         1.2163138745   -1.7445006529   -1.7898192411
     10  H         1.2144691134   -2.4941819795   -0.1695171814
     11  H         2.6764427348   -1.6970238351   -0.7826342041
     12  H         1.2159086270    1.3919158336   -2.0760194283
     13  H         1.2145446659    2.4224500375   -0.6181239240
     14  H         2.6763097945    1.5274548052   -1.0773214200
     15  K        -2.9555903362   -0.0006463194    0.0004653919
   Point Group: c1    Number of degrees of freedom:    39


   Energy is  -1009.217204489

 Hessian updated using BFGS update

 33 Hessian modes will be used to form the next step
  Hessian Eigenvalues:
     0.005829    0.005848    0.005848    0.013339    0.032239    0.050716
     0.050716    0.054871    0.054926    0.054926    0.057834    0.057836
     0.156702    0.159914    0.160000    0.160002    0.163782    0.174988
     0.175010    0.199956    0.200000    0.216666    0.216667    0.218491
     0.348290    0.348292    0.348617    0.349405    0.349412    0.349413
     0.349414    0.349415    0.363970

 Minimum search - taking simple RFO step
 Searching for Lamda that Minimizes Along All modes
 Value Taken    Lamda =  -0.00000005
 Step Taken.  Stepsize is  0.001181

                             Maximum     Tolerance    Cnvgd?
         Gradient           0.000053      0.000050      NO
         Displacement       0.000649      0.000050      NO
         Energy change     -0.000001      0.000000      NO


 New Cartesian Coordinates Obtained by Inverse Iteration

 Displacement from previous Coordinates is:  0.001931
 ----------------------------------------------------------------
             Standard Nuclear Orientation (Angstroms)
    I     Atom           X                Y                Z
 ----------------------------------------------------------------
    1      C       1.5761256092     0.1636328661     1.7925481293
    2      Si      1.0509300242     0.0001294758     0.0002593628
    3      C       1.5761686747     1.4702869865    -1.0379067765
    4      C       1.5763100392    -1.6336843329    -0.7545691642
    5      H      -0.4824412231    -0.0000626045     0.0002054744
    6      H       1.2162849141     1.1018953260     2.2440165081
    7      H       1.2136702707    -0.6759770959     2.4068144445
    8      H       2.6762314734     0.1683796870     1.8623046231
    9      H       1.2162749098    -1.7443310886    -1.7898342317
   10      H       1.2142442218    -2.4941076878    -0.1695755187
   11      H       2.6764366435    -1.6973945038    -0.7826992772
   12      H       1.2158030954     1.3917773273    -2.0759979089
   13      H       1.2143139725     2.4223872334    -0.6181553352
   14      H       2.6762769258     1.5278258650    -1.0775063147
   15      K      -2.9552344641    -0.0007135575     0.0005230351
 ----------------------------------------------------------------
 Molecular Point Group                 C1    NOp =  1
 Largest Abelian Subgroup              C1    NOp =  1
 Nuclear Repulsion Energy =         268.11600575 hartrees
 There are       30 alpha and       30 beta electrons
 Applying Cartesian multipole field
    Component          Value
    ---------          -----
     (2,0,0)        1.00000E-11
     (0,2,0)        2.00000E-11
     (0,0,2)       -3.00000E-11
 Nucleus-field energy     =     0.0000000073 hartrees
 Requested basis set is def2-SVPD
 There are 85 shells and 191 basis functions
 A cutoff of  1.0D-14 yielded   3547 shell pairs
 There are     18141 function pairs (     20141 Cartesian)
 Smallest overlap matrix eigenvalue = 1.61E-04
 Read the previous MOs as SCF guess

 -----------------------------------------------------------------------
  General SCF calculation program by
  Eric Jon Sundstrom, Paul Horn, Yuezhi Mao, Dmitri Zuev, Alec White,
  David Stuck, Shaama M.S., Shane Yost, Joonho Lee, David Small,
  Daniel Levine, Susi Lehtola, Hugh Burton, Evgeny Epifanovsky,
  Bang C. Huynh
 -----------------------------------------------------------------------
 Exchange:     0.1670 Hartree-Fock + 1.0000 wB97X-V + LR-HF
 Correlation:  1.0000 wB97X-V
 Using Euler-Maclaurin-Lebedev (75,302) quadrature formula
 Nonlocal Correlation:  VV10 with C = 0.0100 and b = 6.00 and scale = 1.00000
 Grid used for NLC:  SG-1 standard quadrature
 A restricted SCF calculation will be
 performed using DIIS
 SCF converges when DIIS error is below 1.0e-09
 ---------------------------------------
  Cycle       Energy         DIIS error
 ---------------------------------------
    1   -1009.2172044625      4.15e-06  
    2   -1009.2172045253      6.14e-07  
    3   -1009.2172045292      1.92e-07  
    4   -1009.2172045295      9.29e-08  
    5   -1009.2172045295      1.05e-08  
    6   -1009.2172045295      3.78e-09  
    7   -1009.2172045295      4.21e-10  Convergence criterion met
 ---------------------------------------
 SCF time:   CPU 172.75s  wall 8.00s 
 SCF   energy in the final basis set =    -1009.2172045295
 Total energy in the final basis set =    -1009.2172045295
 
 --------------------------------------------------------------
 
                    Orbital Energies (a.u.)
 --------------------------------------------------------------
 
 Alpha MOs
 -- Occupied --
******** -66.2514 -13.5052 -10.8442 -10.8442 -10.8438 -10.3783 -10.3783
-10.3783  -5.5057  -3.8614  -3.8584  -3.8584  -1.7096  -1.0611  -1.0611
 -1.0599  -0.9559  -0.9136  -0.9135  -0.7188  -0.6435  -0.6302  -0.6302
 -0.6074  -0.6073  -0.5989  -0.5422  -0.5237  -0.5237
 -- Virtual --
 -0.1304  -0.0849  -0.0849  -0.0701  -0.0492  -0.0175  -0.0175  -0.0076
 -0.0024  -0.0024   0.0059   0.0327   0.0327   0.0408   0.0457   0.0457
  0.0592   0.0687   0.0687   0.0732   0.0943   0.0944   0.1020   0.1021
  0.1103   0.1103   0.1106   0.1206   0.1281   0.1562   0.1563   0.1925
  0.1925   0.2026   0.2056   0.2150   0.2265   0.2266   0.2647   0.2834
  0.2834   0.2874   0.2875   0.3080   0.3128   0.3192   0.3254   0.3254
  0.3382   0.3383   0.3448   0.3449   0.3530   0.3610   0.3610   0.3773
  0.3773   0.3787   0.3971   0.4156   0.4194   0.4214   0.4214   0.4438
  0.4439   0.4441   0.4557   0.4559   0.4639   0.4640   0.4778   0.4941
  0.4941   0.4997   0.4997   0.5160   0.5341   0.5342   0.5354   0.5656
  0.5928   0.5929   0.6151   0.6160   0.6161   0.6624   0.7419   0.7420
  0.8089   0.8163   0.8163   0.8681   0.8681   0.8871   0.9234   0.9368
  0.9368   0.9372   0.9580   0.9797   0.9800   0.9983   0.9984   1.0487
  1.0488   1.0577   1.1141   1.1471   1.1473   1.1691   1.1732   1.1735
  1.2417   1.2954   1.2954   1.3257   1.5720   1.5951   1.5952   1.6470
  1.6471   1.6838   1.6984   1.6985   1.7133   1.7982   1.7983   1.9106
  1.9108   1.9174   1.9175   1.9440   1.9443   1.9653   1.9892   2.0242
  2.0242   2.0335   2.0962   2.0963   2.1324   2.1325   2.1893   2.3368
  2.3754   2.3755   2.5052   2.5059   2.5059   2.5263   2.5263   2.5286
  2.7999   2.8000   2.8112   3.0736   3.0788   3.0789   3.1180   3.1180
  3.1337
 --------------------------------------------------------------
 
          Ground-State Mulliken Net Atomic Charges

     Atom                 Charge (a.u.)
  ----------------------------------------
      1 C                     0.157454
      2 Si                   -0.370285
      3 C                     0.157602
      4 C                     0.157519
      5 H                     0.059760
      6 H                    -0.022456
      7 H                    -0.022286
      8 H                    -0.001326
      9 H                    -0.022372
     10 H                    -0.022591
     11 H                    -0.001136
     12 H                    -0.022279
     13 H                    -0.022642
     14 H                    -0.001007
     15 K                     0.976046
  ----------------------------------------
  Sum of atomic charges =     1.000000

 -----------------------------------------------------------------
                    Cartesian Multipole Moments
 -----------------------------------------------------------------
    Charge (ESU x 10^10)
                 4.8032
    Dipole Moment (Debye)
         X     -10.9040      Y      -0.0027      Z       0.0027
       Tot      10.9040
    Quadrupole Moments (Debye-Ang)
        XX       1.0880     XY       0.0106     YY     -42.7147
        XZ      -0.0060     YZ      -0.0000     ZZ     -42.7131
    Octopole Moments (Debye-Ang^2)
       XXX    -168.4564    XXY      -0.0263    XYY     -19.1790
       YYY       0.4822    XXZ       0.0192    XYZ       0.0006
       YYZ       1.6589    XZZ     -19.1741    YZZ      -0.4618
       ZZZ      -1.6889
    Hexadecapole Moments (Debye-Ang^3)
      XXXX    -558.1599   XXXY       0.0134   XXYY    -209.3837
      XYYY       0.1138   YYYY    -305.5682   XXXZ       0.0001
      XXYZ      -0.0065   XYYZ       0.6059   YYYZ       0.0025
      XXZZ    -209.4027   XYZZ      -0.1818   YYZZ    -101.8932
      XZZZ      -0.5582   YZZZ       0.0054   ZZZZ    -305.6918
 -----------------------------------------------------------------
 Calculating analytic gradient of the SCF energy
 Gradient of SCF Energy
            1           2           3           4           5           6
    1  -0.0000101  -0.0000025  -0.0000095  -0.0000082   0.0000047   0.0000019
    2   0.0000013   0.0000037   0.0000001  -0.0000012  -0.0000088  -0.0000010
    3   0.0000016   0.0000004  -0.0000021   0.0000007  -0.0000018   0.0000027
            7           8           9          10          11          12
    1   0.0000053   0.0000018   0.0000045   0.0000058   0.0000031   0.0000022
    2   0.0000047   0.0000035  -0.0000062  -0.0000012   0.0000081   0.0000036
    3   0.0000031  -0.0000087   0.0000029  -0.0000008   0.0000038  -0.0000004
           13          14          15
    1   0.0000019   0.0000006  -0.0000014
    2   0.0000003  -0.0000067  -0.0000001
    3  -0.0000049   0.0000032   0.0000004
 Max gradient component =       1.013E-05
 RMS gradient           =       4.353E-06
 Gradient time:  CPU 151.35 s  wall 6.31 s
 Geometry Optimization Parameters
   NAtoms,    NIC,     NZ,  NCons,   NDum,   NFix, NCnnct, MaxDiis
       15      99       0       0       0       0       0       0

 Cartesian Hessian Update
 Hessian updated using BFGS update


** GEOMETRY OPTIMIZATION IN DELOCALIZED INTERNAL COORDINATES **
   Searching for a Minimum

   Optimization Cycle:   6

                       Coordinates (Angstroms)
     ATOM                X               Y               Z
      1  C         1.5761256092    0.1636328661    1.7925481293
      2  Si        1.0509300242    0.0001294758    0.0002593628
      3  C         1.5761686747    1.4702869865   -1.0379067765
      4  C         1.5763100392   -1.6336843329   -0.7545691642
      5  H        -0.4824412231   -0.0000626045    0.0002054744
      6  H         1.2162849141    1.1018953260    2.2440165081
      7  H         1.2136702707   -0.6759770959    2.4068144445
      8  H         2.6762314734    0.1683796870    1.8623046231
      9  H         1.2162749098   -1.7443310886   -1.7898342317
     10  H         1.2142442218   -2.4941076878   -0.1695755187
     11  H         2.6764366435   -1.6973945038   -0.7826992772
     12  H         1.2158030954    1.3917773273   -2.0759979089
     13  H         1.2143139725    2.4223872334   -0.6181553352
     14  H         2.6762769258    1.5278258650   -1.0775063147
     15  K        -2.9552344641   -0.0007135575    0.0005230351
   Point Group: c1    Number of degrees of freedom:    39


   Energy is  -1009.217204530

 Hessian updated using BFGS update

 36 Hessian modes will be used to form the next step
  Hessian Eigenvalues:
     0.004955    0.005848    0.005848    0.013293    0.020152    0.050289
     0.050716    0.050730    0.054926    0.054926    0.057821    0.057836
     0.057836    0.122466    0.159931    0.160000    0.160000    0.160000
     0.160030    0.163806    0.174918    0.175011    0.199648    0.200000
     0.216665    0.216667    0.221225    0.348290    0.348291    0.348631
     0.349405    0.349412    0.349413    0.349414    0.349414    0.381786

 Minimum search - taking simple RFO step
 Searching for Lamda that Minimizes Along All modes
 Value Taken    Lamda =  -0.00000005
 Step Taken.  Stepsize is  0.002144

                             Maximum     Tolerance    Cnvgd?
         Gradient           0.000028      0.000050     YES
         Displacement       0.001004      0.000050      NO
         Energy change     -0.000000      0.000000     YES


                       Distance Matrix (Angstroms)
             C (  1)   Si(  2)   C (  3)   C (  4)   H (  5)   H (  6)
   Si(  2)  1.874797
   C (  3)  3.117502  1.874841
   C (  4)  3.117396  1.874870  3.116876
   H (  5)  2.734408  1.533371  2.734498  2.734385
   H (  6)  1.101656  2.505130  3.322085  4.074866  3.022362
   H (  7)  1.101654  2.505017  4.074796  3.323110  3.020831  1.785312
   H (  8)  1.102325  2.477322  3.363975  3.362334  3.670558  1.774429
   H (  9)  4.074713  2.504978  3.320947  1.101654  3.021978  4.936897
   H ( 10)  3.323322  2.505341  4.074483  1.101652  3.021230  4.330897
   H ( 11)  3.362441  2.477273  3.363023  1.102329  3.670475  4.373680
   H ( 12)  4.074778  2.504937  1.101663  3.321078  3.021899  4.329729
   H ( 13)  3.323307  2.505287  1.101646  4.074477  3.021525  3.152099
   H ( 14)  3.362821  2.477335  1.102323  3.362940  3.670614  3.653150
   K ( 15)  4.875612  4.006165  4.876043  4.875618  2.472793  4.863187
             H (  7)   H (  8)   H (  9)   H ( 10)   H ( 11)   H ( 12)
   H (  8)  1.774405
   H (  9)  4.330502  4.373563
   H ( 10)  3.153313  3.654420  1.785331
   H ( 11)  3.654583  3.236844  1.774428  1.774452
   H ( 12)  4.936722  4.374903  3.149137  4.328343  3.653636
   H ( 13)  4.330162  3.656560  4.328323  4.936917  4.374640  1.785347
   H ( 14)  4.374524  3.238917  3.653222  4.374680  3.238666  1.774395
   K ( 15)  4.860657  5.933652  4.862825  4.861121  5.933623  4.862975
             H ( 13)   H ( 14)
   H ( 14)  1.774424
   K ( 15)  4.862028  5.934012
 
 Final energy is   -1009.21720452952     


 ******************************
 **  OPTIMIZATION CONVERGED  **
 ******************************

                       Coordinates (Angstroms)
     ATOM                X               Y               Z
      1  C         1.5761256092    0.1636328661    1.7925481293
      2  Si        1.0509300242    0.0001294758    0.0002593628
      3  C         1.5761686747    1.4702869865   -1.0379067765
      4  C         1.5763100392   -1.6336843329   -0.7545691642
      5  H        -0.4824412231   -0.0000626045    0.0002054744
      6  H         1.2162849141    1.1018953260    2.2440165081
      7  H         1.2136702707   -0.6759770959    2.4068144445
      8  H         2.6762314734    0.1683796870    1.8623046231
      9  H         1.2162749098   -1.7443310886   -1.7898342317
     10  H         1.2142442218   -2.4941076878   -0.1695755187
     11  H         2.6764366435   -1.6973945038   -0.7826992772
     12  H         1.2158030954    1.3917773273   -2.0759979089
     13  H         1.2143139725    2.4223872334   -0.6181553352
     14  H         2.6762769258    1.5278258650   -1.0775063147
     15  K        -2.9552344641   -0.0007135575    0.0005230351

Z-matrix Print:
$molecule
1 1
Si
H  1 1.533371
C  1 1.874797 2 106.270900
H  3 1.101654 1 111.988019 2 60.819656 0
H  3 1.101656 1 111.996375 2 -61.004357 0
H  3 1.102325 1 109.903832 2 179.903740 0
C  1 1.874841 2 106.273923 3 -120.019484 0
H  7 1.101646 1 112.005646 2 60.862483 0
H  7 1.101663 1 111.978564 2 -60.965475 0
H  7 1.102323 1 109.901933 2 179.959422 0
C  1 1.874870 2 106.266100 3 120.007188 0
H  11 1.101652 1 112.007377 2 -60.837604 0
H  11 1.101654 1 111.980083 2 60.991138 0
H  11 1.102329 1 109.895228 2 -179.933322 0
K  2 2.472793 1 179.987739 3 -45.360444 0
$end

 
 --------------------------------------------------------------
 
                    Orbital Energies (a.u.)
 --------------------------------------------------------------
 
 Alpha MOs
 -- Occupied --
******** -66.2514 -13.5052 -10.8442 -10.8442 -10.8438 -10.3783 -10.3783
-10.3783  -5.5057  -3.8614  -3.8584  -3.8584  -1.7096  -1.0611  -1.0611
 -1.0599  -0.9559  -0.9136  -0.9135  -0.7188  -0.6435  -0.6302  -0.6302
 -0.6074  -0.6073  -0.5989  -0.5422  -0.5237  -0.5237
 -- Virtual --
 -0.1304  -0.0849  -0.0849  -0.0701  -0.0492  -0.0175  -0.0175  -0.0076
 -0.0024  -0.0024   0.0059   0.0327   0.0327   0.0408   0.0457   0.0457
  0.0592   0.0687   0.0687   0.0732   0.0943   0.0944   0.1020   0.1021
  0.1103   0.1103   0.1106   0.1206   0.1281   0.1562   0.1563   0.1925
  0.1925   0.2026   0.2056   0.2150   0.2265   0.2266   0.2647   0.2834
  0.2834   0.2874   0.2875   0.3080   0.3128   0.3192   0.3254   0.3254
  0.3382   0.3383   0.3448   0.3449   0.3530   0.3610   0.3610   0.3773
  0.3773   0.3787   0.3971   0.4156   0.4194   0.4214   0.4214   0.4438
  0.4439   0.4441   0.4557   0.4559   0.4639   0.4640   0.4778   0.4941
  0.4941   0.4997   0.4997   0.5160   0.5341   0.5342   0.5354   0.5656
  0.5928   0.5929   0.6151   0.6160   0.6161   0.6624   0.7419   0.7420
  0.8089   0.8163   0.8163   0.8681   0.8681   0.8871   0.9234   0.9368
  0.9368   0.9372   0.9580   0.9797   0.9800   0.9983   0.9984   1.0487
  1.0488   1.0577   1.1141   1.1471   1.1473   1.1691   1.1732   1.1735
  1.2417   1.2954   1.2954   1.3257   1.5720   1.5951   1.5952   1.6470
  1.6471   1.6838   1.6984   1.6985   1.7133   1.7982   1.7983   1.9106
  1.9108   1.9174   1.9175   1.9440   1.9443   1.9653   1.9892   2.0242
  2.0242   2.0335   2.0962   2.0963   2.1324   2.1325   2.1893   2.3368
  2.3754   2.3755   2.5052   2.5059   2.5059   2.5263   2.5263   2.5286
[...]
 Raman Active:       YES                    YES                    YES
               X      Y      Z        X      Y      Z        X      Y      Z
 C          0.042 -0.021 -0.001    0.028 -0.003 -0.019   -0.046 -0.210 -0.122
 Si         0.000 -0.011  0.001   -0.000 -0.001 -0.011    0.097  0.000  0.000
 C         -0.045 -0.021  0.003    0.023  0.001 -0.019   -0.046  0.211 -0.121
 C          0.003 -0.018  0.001   -0.050 -0.001 -0.022   -0.046 -0.001  0.243
 H         -0.000  0.613 -0.035    0.000  0.035  0.613    0.075  0.000 -0.001
 H         -0.173 -0.045 -0.072   -0.165 -0.173 -0.078   -0.148 -0.278 -0.160
 H         -0.220 -0.175 -0.103   -0.095 -0.018  0.041   -0.149 -0.277 -0.164
 H          0.009  0.346  0.159    0.006  0.189  0.173   -0.058 -0.101 -0.059
 H          0.028  0.039 -0.105    0.237 -0.020 -0.172   -0.148 -0.003  0.321
 H         -0.056  0.035  0.125    0.232  0.026 -0.159   -0.148  0.000  0.321
 H          0.001  0.066 -0.027   -0.012  0.002  0.454   -0.058 -0.000  0.116
 H          0.230 -0.176  0.096   -0.068 -0.004  0.053   -0.149  0.278 -0.161
 H          0.192 -0.066  0.080   -0.143  0.167 -0.068   -0.148  0.280 -0.158
 H         -0.011  0.368 -0.176    0.005 -0.148  0.152   -0.058  0.101 -0.058
 K          0.000  0.000 -0.000   -0.000  0.000  0.000   -0.002  0.000 -0.000
 TransDip   0.000 -0.100  0.006   -0.000 -0.006 -0.100    0.043  0.000  0.000

 Mode:                13                     14                     15
 Frequency:       668.86                 727.22                 727.46
 Force Cnst:      0.3086                 0.8218                 0.8231
 Red. Mass:       1.1707                 2.6376                 2.6400
 IR Active:          YES                    YES                    YES
 IR Intens:        0.000                  6.250                  6.256
 Raman Active:       YES                    YES                    YES
               X      Y      Z        X      Y      Z        X      Y      Z
 C         -0.000 -0.036  0.060    0.045  0.148  0.008   -0.063 -0.136 -0.135
 Si        -0.000  0.000  0.000    0.000 -0.013 -0.144   -0.000  0.144 -0.013
 C          0.000 -0.035 -0.061    0.032 -0.119 -0.019    0.070 -0.163  0.133
 C          0.000  0.071  0.000   -0.077 -0.009  0.227   -0.007  0.082  0.022
 H         -0.000  0.000  0.000   -0.000 -0.028 -0.308   -0.000  0.309 -0.029
 H          0.083  0.373  0.075   -0.006 -0.112  0.003   -0.122 -0.394 -0.154
 H         -0.084 -0.251 -0.288    0.117  0.327  0.282   -0.034 -0.055  0.009
 H         -0.000  0.077 -0.134    0.045  0.105  0.172   -0.064 -0.250 -0.066
 H         -0.084 -0.123  0.361   -0.088 -0.011  0.253   -0.085 -0.087  0.343
 H          0.085 -0.121 -0.362   -0.103  0.025  0.313    0.066 -0.081 -0.289
 H          0.000 -0.156 -0.001   -0.078  0.010  0.304   -0.007 -0.117  0.028
 H          0.084 -0.253  0.286    0.109 -0.313  0.277    0.056 -0.117  0.044
 H         -0.083  0.373 -0.072   -0.029  0.186 -0.025    0.120 -0.367  0.149
 H          0.000  0.076  0.134    0.032 -0.057  0.156    0.072 -0.266  0.095
 K          0.000 -0.000  0.000   -0.000 -0.000 -0.000    0.000  0.000 -0.000
 TransDip  -0.000  0.000  0.000    0.000 -0.007 -0.080   -0.000  0.080 -0.007

 Mode:                16                     17                     18
 Frequency:       840.65                 840.78                 857.67
 Force Cnst:      0.5798                 0.5804                 0.6939
 Red. Mass:       1.3926                 1.3934                 1.6011
 IR Active:          YES                    YES                    YES
 IR Intens:       10.789                 10.914                 71.087
 Raman Active:       YES                    YES                    YES
               X      Y      Z        X      Y      Z        X      Y      Z
 C         -0.035  0.043 -0.086   -0.074 -0.034  0.032   -0.101  0.015  0.009
 Si         0.001 -0.005  0.056    0.000  0.056  0.005    0.095  0.000 -0.001
 C         -0.048 -0.036 -0.080    0.067 -0.041 -0.047   -0.102 -0.015  0.009
 C          0.081  0.010 -0.015    0.007 -0.106 -0.002   -0.102  0.000 -0.017
 H          0.001 -0.037  0.393   -0.000  0.392  0.037    0.057 -0.000 -0.002
 H         -0.030 -0.335 -0.072    0.141  0.203  0.094    0.200  0.099  0.105
 H          0.130  0.289  0.265    0.068 -0.057 -0.111    0.199  0.136  0.030
 H         -0.024 -0.210  0.049   -0.051 -0.253 -0.226   -0.063 -0.378 -0.221
 H         -0.121  0.016  0.098    0.078  0.108 -0.383    0.201 -0.042 -0.136
 H         -0.105 -0.035  0.028   -0.099  0.100  0.395    0.201  0.043 -0.136
 H          0.056 -0.013 -0.362    0.005  0.164 -0.032   -0.063 -0.002  0.444
 H          0.140 -0.275  0.238   -0.043 -0.110  0.157    0.200 -0.136  0.029
 H         -0.005  0.294 -0.052   -0.144  0.261 -0.104    0.201 -0.100  0.105
 H         -0.033  0.252  0.009    0.046 -0.213  0.229   -0.063  0.380 -0.218
 K         -0.000 -0.000  0.000   -0.000  0.000  0.000   -0.002 -0.000  0.000
 TransDip   0.002 -0.010  0.105    0.000  0.105  0.010    0.270  0.000 -0.001

 Mode:                19                     20                     21
 Frequency:       910.67                 910.82                1282.56
 Force Cnst:      0.6814                 0.6819                 1.2427
 Red. Mass:       1.3946                 1.3951                 1.2822
 IR Active:          YES                    YES                    YES
 IR Intens:      170.153                170.369                 43.619
 Raman Active:       YES                    YES                    YES
               X      Y      Z        X      Y      Z        X      Y      Z
 C         -0.049  0.051 -0.005   -0.027 -0.007  0.059   -0.012 -0.033 -0.024
 Si         0.000 -0.093 -0.002   -0.000  0.002 -0.093   -0.000 -0.003  0.016
 C          0.048  0.052  0.007   -0.029  0.005  0.059   -0.024  0.068 -0.042
 C          0.001  0.062  0.001    0.056 -0.001  0.048    0.036  0.001 -0.119
 H         -0.000  0.777  0.017    0.000 -0.017  0.777    0.000  0.003 -0.017
 H          0.113  0.014  0.056    0.099  0.254  0.092    0.082  0.128  0.010
 H          0.145  0.203  0.139    0.043 -0.063 -0.107    0.068  0.079  0.116
 H         -0.029 -0.174 -0.040   -0.016 -0.033 -0.131   -0.021  0.129  0.094
 H         -0.035 -0.062  0.215   -0.147  0.014  0.159   -0.216 -0.173  0.355
 H          0.030 -0.061 -0.210   -0.148 -0.013  0.167   -0.219  0.169  0.354
 H          0.001 -0.111 -0.004    0.033  0.003 -0.196    0.061 -0.005  0.460
 H         -0.143  0.206 -0.141    0.048  0.056 -0.101    0.142 -0.152  0.221
 H         -0.110  0.005 -0.053    0.104 -0.255  0.092    0.153 -0.259  0.018
 H          0.028 -0.173  0.034   -0.017  0.040 -0.132   -0.041 -0.264  0.167
 K          0.000 -0.000 -0.000   -0.000  0.000 -0.000   -0.000  0.000 -0.000
 TransDip   0.000 -0.418 -0.009   -0.000  0.009 -0.418    0.001 -0.040  0.208

 Mode:                22                     23                     24
 Frequency:      1282.63                1289.99                1424.53
 Force Cnst:      1.2427                 1.2195                 1.2538
 Red. Mass:       1.2821                 1.2438                 1.0487
 IR Active:          YES                    YES                    YES
 IR Intens:       43.734                  6.957                  0.070
 Raman Active:       YES                    YES                    YES
               X      Y      Z        X      Y      Z        X      Y      Z
 C         -0.035 -0.100 -0.057    0.026  0.069  0.040    0.023 -0.013  0.005
 Si        -0.000  0.016  0.003   -0.003 -0.000  0.000   -0.000 -0.000  0.000
 C          0.028 -0.081  0.044    0.026 -0.069  0.039    0.021  0.013  0.006
 C          0.007 -0.004 -0.023    0.027  0.000 -0.081   -0.045  0.000 -0.017
 H         -0.000 -0.018 -0.003   -0.020 -0.000  0.000   -0.000  0.000  0.010
 H          0.208  0.380  0.029   -0.165 -0.279 -0.028   -0.256  0.171 -0.095
 H          0.213  0.211  0.312   -0.165 -0.162 -0.228   -0.091  0.059  0.207
 H         -0.060  0.389  0.220    0.045 -0.288 -0.168    0.027 -0.059 -0.187
 H         -0.049 -0.030  0.062   -0.166 -0.120  0.259    0.339 -0.309  0.247
 H         -0.034  0.035  0.074   -0.166  0.118  0.260    0.339  0.308  0.249
 H          0.012  0.018  0.088    0.046 -0.001  0.336   -0.052  0.001 -0.285
 H         -0.173  0.170 -0.247   -0.164  0.162 -0.226   -0.064 -0.060  0.185
 H         -0.165  0.308 -0.022   -0.164  0.277 -0.025   -0.245 -0.149 -0.090
 H          0.048  0.317 -0.168    0.045  0.288 -0.165    0.024  0.040 -0.190
 K          0.000 -0.000 -0.000    0.000  0.000 -0.000    0.000  0.000  0.000
 TransDip  -0.000  0.208  0.040   -0.084 -0.000  0.002    0.002  0.000  0.008

 Mode:                25                     26                     27
 Frequency:      1424.88                1425.21                1437.07
 Force Cnst:      1.2559                 1.2569                 1.2720
 Red. Mass:       1.0499                 1.0502                 1.0454
 IR Active:          YES                    YES                    YES
 IR Intens:        0.063                  0.028                  3.272
 Raman Active:       YES                    YES                    YES
               X      Y      Z        X      Y      Z        X      Y      Z
 C         -0.029  0.019 -0.012    0.025  0.008 -0.032    0.005  0.019 -0.034
 Si        -0.000 -0.000  0.000    0.000  0.000 -0.000   -0.000  0.000 -0.008
 C          0.029  0.020  0.012   -0.027  0.007  0.032    0.005 -0.019 -0.034
 C         -0.001 -0.033 -0.000    0.001 -0.018  0.000   -0.014 -0.000 -0.002
 H         -0.000 -0.008  0.000    0.000  0.007 -0.000   -0.000 -0.000  0.029
 H          0.357 -0.207  0.126    0.045  0.257 -0.020    0.275  0.110  0.067
 H          0.073 -0.083 -0.257   -0.423 -0.043  0.206   -0.351 -0.103  0.016
 H         -0.033  0.043  0.286    0.029 -0.325  0.242    0.007 -0.277  0.406
 H         -0.237  0.022  0.081   -0.137  0.023  0.030    0.105 -0.091  0.071
 H          0.249  0.034 -0.072    0.117  0.005 -0.045    0.106  0.091  0.071
 H         -0.001  0.387 -0.004    0.001  0.201  0.009   -0.017  0.001 -0.098
 H         -0.075 -0.087  0.263    0.426 -0.037 -0.217   -0.352  0.103  0.017
 H         -0.365 -0.211 -0.131   -0.030  0.265  0.027    0.275 -0.111  0.066
 H          0.034  0.045 -0.292   -0.030 -0.324 -0.233    0.006  0.275  0.409
 K         -0.000 -0.000  0.000    0.000  0.000 -0.000    0.000 -0.000 -0.000
 TransDip   0.000 -0.008  0.000   -0.000  0.005 -0.000    0.004 -0.000  0.058

 Mode:                28                     29                     30
 Frequency:      1437.33                1441.71                2105.61
 Force Cnst:      1.2723                 1.2775                 2.7029
 Red. Mass:       1.0453                 1.0432                 1.0347
 IR Active:          YES                    YES                    YES
 IR Intens:        3.240                 10.195                167.409
 Raman Active:       YES                    YES                    YES
               X      Y      Z        X      Y      Z        X      Y      Z
 C          0.010 -0.012  0.018    0.029 -0.010 -0.007   -0.002  0.000  0.000
 Si         0.000 -0.008 -0.000    0.010  0.000 -0.000   -0.031 -0.000  0.000
 C         -0.010 -0.012 -0.018    0.030  0.010 -0.007   -0.002 -0.000  0.000
 C          0.000 -0.046 -0.000    0.028  0.000  0.012   -0.002 -0.000 -0.000
 H          0.000  0.028  0.000    0.003 -0.000  0.001    0.999  0.000 -0.000
 H         -0.256  0.038 -0.078   -0.229  0.282 -0.098   -0.003 -0.002  0.003
 H          0.097  0.072  0.098   -0.253  0.046  0.292   -0.003  0.002 -0.003
 H          0.013  0.075 -0.276    0.036 -0.196 -0.093   -0.005 -0.013 -0.007
 H         -0.369  0.040  0.123   -0.230  0.217 -0.181   -0.003 -0.004 -0.000
 H          0.368  0.040 -0.124   -0.230 -0.217 -0.182   -0.003  0.004 -0.000
 H         -0.001  0.577  0.003    0.034 -0.001  0.207   -0.005 -0.000  0.015
 H         -0.097  0.073 -0.097   -0.254 -0.049  0.293   -0.003 -0.002 -0.003
 H          0.255  0.037  0.079   -0.231 -0.283 -0.101   -0.003  0.002  0.003
 H         -0.013  0.072  0.276    0.036  0.197 -0.092   -0.005  0.013 -0.007
 K         -0.000 -0.000 -0.000   -0.000  0.000 -0.000   -0.001 -0.000  0.000
 TransDip  -0.000  0.058  0.000   -0.102 -0.000  0.003   -0.414 -0.000  0.000

 Mode:                31                     32                     33
 Frequency:      3052.72                3053.43                3053.46
 Force Cnst:      5.6971                 5.7002                 5.7003
 Red. Mass:       1.0376                 1.0377                 1.0377
 IR Active:          YES                    YES                    YES
 IR Intens:        2.243                  5.246                  5.248
 Raman Active:       YES                    YES                    YES
               X      Y      Z        X      Y      Z        X      Y      Z
 C         -0.009 -0.026 -0.015   -0.011 -0.033 -0.019    0.003  0.009  0.006
 Si         0.001  0.000  0.000   -0.000  0.001  0.001    0.000 -0.001  0.001
 C         -0.008  0.024 -0.014    0.003 -0.009  0.006   -0.012  0.035 -0.020
 C         -0.008 -0.000  0.029    0.009  0.000 -0.030    0.008 -0.000 -0.028
 H         -0.003 -0.000  0.000    0.000 -0.001 -0.001   -0.000  0.001 -0.001
 H         -0.117 -0.000  0.331   -0.151 -0.002  0.424    0.042 -0.000 -0.118
 H         -0.118  0.287 -0.164   -0.152  0.370 -0.212    0.039 -0.095  0.055
 H          0.335  0.012  0.006    0.433  0.015  0.009   -0.116 -0.004 -0.002
 H         -0.112 -0.273 -0.160    0.116  0.281  0.163    0.111  0.270  0.158
 H         -0.113  0.274 -0.158    0.118 -0.287  0.165    0.110 -0.266  0.152
 H          0.320  0.000 -0.013   -0.334 -0.000  0.013   -0.315 -0.001  0.012
 H         -0.109 -0.266 -0.155    0.041  0.100  0.059   -0.157 -0.382 -0.223
 H         -0.109 -0.002  0.308    0.044  0.001 -0.124   -0.157 -0.002  0.439
 H          0.312 -0.010  0.006   -0.122  0.004 -0.002    0.449 -0.015  0.009
 K          0.000 -0.000  0.000   -0.000 -0.000 -0.000    0.000  0.000 -0.000
 TransDip  -0.048 -0.002 -0.000    0.001 -0.051 -0.053   -0.001  0.053 -0.051

 Mode:                34                     35                     36
 Frequency:      3147.02                3147.22                3147.25
 Force Cnst:      6.4305                 6.4300                 6.4303
 Red. Mass:       1.1020                 1.1018                 1.1018
 IR Active:          YES                    YES                    YES
 IR Intens:        0.107                  3.584                  4.030
 Raman Active:       YES                    YES                    YES
               X      Y      Z        X      Y      Z        X      Y      Z
 C         -0.005  0.029 -0.047    0.046  0.005 -0.036    0.024 -0.029  0.035
 Si         0.000 -0.000 -0.000    0.000  0.000 -0.000    0.000 -0.000  0.000
 C          0.002  0.023  0.039   -0.041  0.004  0.033    0.025  0.033  0.041
 C          0.004 -0.059  0.001   -0.003  0.049 -0.001   -0.047 -0.007 -0.015
 H         -0.000  0.000  0.000   -0.000 -0.003 -0.000   -0.000  0.000 -0.003
 H         -0.134  0.011  0.376   -0.144  0.008  0.433    0.081 -0.008 -0.216
 H          0.147 -0.370  0.197    0.025 -0.042  0.017   -0.145  0.372 -0.201
 H          0.048  0.008 -0.007   -0.430 -0.023 -0.020   -0.229 -0.018 -0.001
 H          0.143  0.343  0.214   -0.119 -0.286 -0.179    0.080  0.217  0.130
 H         -0.154  0.372 -0.228    0.128 -0.309  0.190    0.043 -0.127  0.073
 H         -0.037 -0.010  0.003    0.027  0.009 -0.002    0.445 -0.001 -0.031
 H         -0.115 -0.289 -0.157   -0.024 -0.043 -0.019   -0.164 -0.419 -0.230
 H          0.111  0.011 -0.313    0.130  0.010 -0.390    0.099  0.012 -0.267
 H         -0.018  0.005  0.006    0.382 -0.020  0.018   -0.235  0.019  0.000
 K         -0.000  0.000 -0.000   -0.000 -0.000 -0.000   -0.000 -0.000 -0.000
 TransDip   0.001 -0.007 -0.008    0.003  0.060 -0.004    0.002 -0.004  0.064

 Mode:                37                     38                     39
 Frequency:      3147.90                3147.95                3148.78
 Force Cnst:      6.4307                 6.4307                 6.4295
 Red. Mass:       1.1015                 1.1014                 1.1006
 IR Active:          YES                    YES                    YES
 IR Intens:        9.449                  8.827                 30.525
 Raman Active:       YES                    YES                    YES
               X      Y      Z        X      Y      Z        X      Y      Z
 C         -0.048  0.024 -0.011    0.020  0.017 -0.041   -0.048  0.013  0.007
 Si        -0.000  0.001  0.000    0.000  0.000 -0.000   -0.001 -0.000 -0.000
 C          0.040  0.027  0.023    0.036 -0.011 -0.043   -0.051 -0.014  0.007
 C          0.004  0.052  0.001   -0.051  0.005 -0.016   -0.053 -0.001 -0.017
 H          0.000  0.000 -0.000   -0.000  0.000 -0.000    0.009 -0.000 -0.000
 H          0.012  0.002 -0.058   -0.139  0.010  0.405    0.061 -0.001 -0.199
 H          0.118 -0.315  0.172    0.084 -0.203  0.106    0.066 -0.185  0.103
 H          0.447  0.029  0.012   -0.189 -0.007 -0.013    0.450  0.028  0.016
 H         -0.136 -0.330 -0.206    0.057  0.163  0.097    0.072  0.200  0.120
 H          0.125 -0.300  0.185    0.081 -0.221  0.131    0.068 -0.190  0.112
 H         -0.038  0.009  0.003    0.478  0.001 -0.033    0.497  0.001 -0.036
 H         -0.138 -0.362 -0.200    0.060  0.136  0.070    0.069  0.195  0.110
 H          0.030  0.006 -0.065   -0.156 -0.014  0.460    0.066  0.003 -0.213
 H         -0.371  0.025 -0.008   -0.331  0.016 -0.018    0.478 -0.029  0.017
 K          0.000  0.000  0.000   -0.000  0.000 -0.000    0.000 -0.000  0.000
 TransDip  -0.005  0.097  0.013    0.005  0.009 -0.095   -0.177 -0.002 -0.002

 STANDARD THERMODYNAMIC QUANTITIES AT   298.15 K  AND     1.00 ATM

   This Molecule has  0 Imaginary Frequencies
   Zero point vibrational energy:       74.512 kcal/mol

   Atom    1 Element C  Has Mass   12.00000
   Atom    2 Element Si Has Mass   27.97693
   Atom    3 Element C  Has Mass   12.00000
   Atom    4 Element C  Has Mass   12.00000
   Atom    5 Element H  Has Mass    1.00783
   Atom    6 Element H  Has Mass    1.00783
   Atom    7 Element H  Has Mass    1.00783
   Atom    8 Element H  Has Mass    1.00783
   Atom    9 Element H  Has Mass    1.00783
   Atom   10 Element H  Has Mass    1.00783
   Atom   11 Element H  Has Mass    1.00783
   Atom   12 Element H  Has Mass    1.00783
   Atom   13 Element H  Has Mass    1.00783
   Atom   14 Element H  Has Mass    1.00783
   Atom   15 Element K  Has Mass   38.96371
   Molecular Mass:   113.018940 amu
   Principal axes and moments of inertia in amu*Bohr^2:
                             1           2           3
    Eigenvalues --      587.31098  2316.03312  2316.22175
          X               1.00000    -0.00001    -0.00000
          Y               0.00001     1.00000     0.00219
          Z               0.00000    -0.00219     1.00000
   Rotational Symmetry Number is   1
   The Molecule is an Asymmetric Top
   Translational Enthalpy:        0.889 kcal/mol
   Rotational Enthalpy:           0.889 kcal/mol
   Vibrational Enthalpy:         79.087 kcal/mol
   gas constant (RT):             0.592 kcal/mol
   Translational Entropy:        40.083  cal/mol.K
   Rotational Entropy:           29.534  cal/mol.K
   Vibrational Entropy:          33.968  cal/mol.K

   Total Enthalpy:               81.457 kcal/mol
   Total Entropy:               103.585  cal/mol.K
 Total job time:  3863.01s(wall), 9294.48s(cpu) 
 Sun Nov 19 13:38:18 2023

        *************************************************************
        *                                                           *
        *  Thank you very much for using Q-Chem.  Have a nice day.  *
        *                                                           *
        *************************************************************


