
Running Job 1 of 6 Me3SiH_HCN_adiabatic_eda.in
qchem Me3SiH_HCN_adiabatic_eda.in_11006.0 /scratch/qchem_scratch/qchem11006/ 0
/opt/qchem/6.0.2/exe/qcprog.exe_s Me3SiH_HCN_adiabatic_eda.in_11006.0 /scratch/qchem_scratch/qchem11006/
                  Welcome to Q-Chem
     A Quantum Leap Into The Future Of Chemistry


 Q-Chem 6.0, Q-Chem, Inc., Pleasanton, CA (2022)

 E. Epifanovsky,  A. T. B. Gilbert,  Xintian Feng,  Joonho Lee,  Yuezhi Mao,  
 N. Mardirossian,  P. Pokhilko,  A. White,  M. Wormit,  M. P. Coons,  
 A. L. Dempwolff,  Zhengting Gan,  D. Hait,  P. R. Horn,  L. D. Jacobson,  
 I. Kaliman,  J. Kussmann,  A. W. Lange,  Ka Un Lao,  D. S. Levine,  Jie Liu,  
 S. C. McKenzie,  A. F. Morrison,  K. Nanda,  F. Plasser,  D. R. Rehn,  
 M. L. Vidal,  Zhi-Qiang You,  Ying Zhu,  B. Alam,  B. Albrecht,  
 A. Aldossary,  E. Alguire,  J. H. Andersen,  V. Athavale,  D. Barton,  
 K. Begam,  A. Behn,  N. Bellonzi,  Y. A. Bernard,  E. J. Berquist,  
 H. Burton,  A. Carreras,  K. Carter-Fenk,  Romit Chakraborty,  
 Chandrima Chakravarty,  Junhan Chen,  A. D. Chien,  K. D. Closser,  
 V. Cofer-Shabica,  L. Cunha,  S. Dasgupta,  Jia Deng,  M. de Wergifosse,  
 M. Diedenhofen,  Hainam Do,  S. Ehlert,  Po-Tung Fang,  S. Fatehi,  
 Qingguo Feng,  T. Friedhoff,  B. Ganoe,  J. Gayvert,  Qinghui Ge,  
 G. Gidofalvi,  M. Goldey,  J. Gomes,  C. Gonzalez-Espinoza,  S. Gulania,  
 A. Gunina,  J. A. Gyamfi,  M. W. D. Hanson-Heine,  P. H. P. Harbach,  
 A. W. Hauser,  M. F. Herbst,  M. Hernandez Vera,  M. Hodecker,  
 Z. C. Holden,  S. Houck,  Xunkun Huang,  Kerwin Hui,  B. C. Huynh,  
 K. Ikeda,  M. Ivanov,  Hyunjun Ji,  Zuxin Jin,  Hanjie Jiang,  B. Kaduk,  
 S. Kaehler,  R. Kang,  K. Khistyaev,  Jaehoon Kim,  Yongbin Kim,  
 P. Klunzinger,  Z. Koczor-Benda,  Joong Hoon Koh,  D. Kosenkov,  
 Saikiran Kotaru,  L. Koulias,  T. Kowalczyk,  C. M. Krauter,  K. Kue,  
 A. Kunitsa,  T. Kus,  A. Landau,  K. V. Lawler,  D. Lefrancois,  S. Lehtola,  
 Rain Li,  Shaozhi Li,  Yi-Pei Li,  Jiashu Liang,  M. Liebenthal,  
 Hung-Hsuan Lin,  You-Sheng Lin,  Fenglai Liu,  Kuan-Yu Liu,  
 M. Loipersberger,  A. Luenser,  C. Malbon,  A. Manjanath,  P. Manohar,  
 E. Mansoor,  S. F. Manzer,  Shan-Ping Mao,  A. V. Marenich,  T. Markovich,  
 S. Mason,  F. Matz,  S. A. Maurer,  P. F. McLaughlin,  M. F. S. J. Menger,  
 J.-M. Mewes,  S. A. Mewes,  P. Morgante,  Mohammad Mostafanejad,  
 J. W. Mullinax,  K. J. Oosterbaan,  G. Paran,  V. Parravicini,  
 Alexander C. Paul,  Suranjan K. Paul,  F. Pavosevic,  Zheng Pei,  S. Prager,  
 E. I. Proynov,  E. Ramos,  B. Rana,  A. E. Rask,  A. Rettig,  R. M. Richard,  
 F. Rob,  E. Rossomme,  T. Scheele,  M. Scheurer,  M. Schneider,  
 P. E. Schneider,  N. Sergueev,  S. M. Sharada,  Hengyuan Shen,  
 W. Skomorowski,  D. W. Small,  C. J. Stein,  Yingli Su,  Yu-Chuan Su,  
 E. J. Sundstrom,  Zhen Tao,  J. Thirman,  Hung-Yi Tsai,  T. Tsuchimochi,  
 N. M. Tubman,  C. Utku,  S. P. Veccham,  O. Vydrov,  J. Wenzel,  
 Jonathan Wong,  J. Witte,  A. Yamada,  Chou-Hsun Yang,  Kun Yao,  
 S. Yeganeh,  S. R. Yost,  A. Zech,  F. Zeller,  Igor Ying Zhang,  
 Xing Zhang,  Yu Zhang,  D. Zuev,  A. Aspuru-Guzik,  A. T. Bell,  
 N. A. Besley,  K. B. Bravaya,  B. R. Brooks,  D. Casanova,  Jeng-Da Chai,  
 Hsing-Ta Chen,  S. Coriani,  C. J. Cramer,  A. E. DePrince, III,  
 R. A. DiStasio Jr.,  A. Dreuw,  B. D. Dunietz,  T. R. Furlani,  
 W. A. Goddard III,  S. Grimme,  S. Hammes-Schiffer,  T. Head-Gordon,  
 W. J. Hehre,  Chao-Ping Hsu,  T.-C. Jagau,  Yousung Jung,  A. Klamt,  
 Jing Kong,  D. S. Lambrecht,  Xiangyuan Li,  WanZhen Liang,  N. J. Mayhall,  
 C. W. McCurdy,  J. B. Neaton,  T. Neudecker,  C. Ochsenfeld,  
 J. A. Parkhill,  R. Peverati,  V. A. Rassolov,  Haisheng Ren,  Yihan Shao,  
 L. V. Slipchenko,  R. P. Steele,  J. E. Subotnik,  A. J. W. Thom,  
 A. Tkatchenko,  D. G. Truhlar,  T. Van Voorhis,  Fan Wang,  
 T. A. Wesolowski,  K. B. Whaley,  H. L. Woodcock III,  P. M. Zimmerman,  
 S. Faraji,  P. M. W. Gill,  M. Head-Gordon,  J. M. Herbert,  A. I. Krylov

 Contributors to earlier versions of Q-Chem not listed above: 
 R. D. Adamson,  B. Austin,  R. Baer,  J. Baker,  G. J. O. Beran,  
 K. Brandhorst,  S. T. Brown,  E. F. C. Byrd,  Arup K. Chakraborty,  
 G. K. L. Chan,  Chun-Min Chang,  Yunqing Chen,  C.-L. Cheng,  
 Siu Hung Chien,  D. M. Chipman,  D. L. Crittenden,  H. Dachsel,  
 R. J. Doerksen,  A. D. Dutoi,  R. G. Edgar,  J. Fosso-Tande,  
 L. Fusti-Molnar,  D. Ghosh,  A. Ghysels,  A. Golubeva-Zadorozhnaya,  
 J. Gonthier,  M. S. Gordon,  S. R. Gwaltney,  G. Hawkins,  J. E. Herr,  
 A. Heyden,  S. Hirata,  E. G. Hohenstein,  G. Kedziora,  F. J. Keil,  
 C. Kelley,  Jihan Kim,  R. A. King,  R. Z. Khaliullin,  P. P. Korambath,  
 W. Kurlancheek,  A. Laurent,  A. M. Lee,  M. S. Lee,  S. V. Levchenko,  
 Ching Yeh Lin,  D. Liotard,  E. Livshits,  R. C. Lochan,  I. Lotan,  
 L. A. Martinez-Martinez,  P. E. Maslen,  N. Nair,  D. P. O'Neill,  
 D. Neuhauser,  E. Neuscamman,  C. M. Oana,  R. Olivares-Amaya,  R. Olson,  
 T. M. Perrine,  B. Peters,  P. A. Pieniazek,  A. Prociuk,  Y. M. Rhee,  
 J. Ritchie,  M. A. Rohrdanz,  E. Rosta,  N. J. Russ,  H. F. Schaefer III,  
 M. W. Schmidt,  N. E. Schultz,  S. Sharma,  N. Shenvi,  C. D. Sherrill,  
 A. C. Simmonett,  A. Sodt,  T. Stein,  D. Stuck,  K. S. Thanthiriwatte,  
 V. Vanovschi,  L. Vogt,  Tao Wang,  A. Warshel,  M. A. Watson,  
 C. F. Williams,  Q. Wu,  X. Xu,  Jun Yang,  W. Zhang,  Yan Zhao

   Please cite Q-Chem as follows:
  "Software for the frontiers of quantum chemistry:
   An overview of developments in the Q-Chem 5 package"
   J. Chem. Phys. 155, 084801 (2021)
   https://doi.org/10.1063/5.0055522 (open access)

 Q-Chem 6.0.2 for Intel X86 EM64T Linux

 Parts of Q-Chem use Armadillo 9.900.5 (Nocturnal Misbehaviour).
 http://arma.sourceforge.net/

 Q-Chem begins on Sat Nov 18 13:17:51 2023  

 Host: 
0

     Scratch files written to /scratch/qchem_scratch/qchem11006//
 Dec722 |scratch|qcdevops|jenkins|workspace|build_RNUM 8907   
 Processing $rem in /opt/qchem/6.0.2/config/preferences:
 Processing $rem in /home/mao_group/.qchemrc:

 Checking the input file for inconsistencies... 	...done.

--------------------------------------------------------------
User input:
--------------------------------------------------------------
$molecule
0 1
--
0 1
H    0.00274    -0.00385   0.00926
Si   0.00019    0.00041    1.49851
C    1.76792    0.00166    2.10231
H    2.28965    -0.89716   1.77821
H    2.31469    0.86722    1.73198
H    1.79630    0.03064    3.19101
C    -0.88646   1.54533    2.07103
H    -0.38688   2.44353    1.71221
H    -0.91226   1.59009    3.15911
H    -1.91394   1.56720    1.71203
C    -0.89282   -1.52530   2.10200
H    -0.93241   -1.53527   3.19069
H    -1.91590   -1.56071   1.73136
H    -0.37986   -2.42916   1.77795
--
0 1
N    1.77317    -3.08704   -0.00366
C    1.40242    -2.44152   -0.89768
H    1.05883    -1.84327   -1.70845
$end

$rem
JOBTYPE  OPT
GEN_SCFMAN  TRUE
METHOD  WB97X-V
BASIS  DEF2-SVPD
UNRESTRICTED  FALSE
MAX_SCF_CYCLES  2000
THRESH  14
SCF_CONVERGENCE  9
MEM_TOTAL  8000
MEM_STATIC  2000
SCF_GUESS  FRAGMO
SYMMETRY  FALSE
SYM_IGNORE  FALSE
SCF_ALGORITHM  DIIS
BASIS_LIN_DEP_THRESH  6
IDERIV  1
XC_GRID  000075000302
NL_GRID  1
FD_MAT_VEC_PROD  FALSE
GEOM_OPT_TOL_GRADIENT  50
GEOM_OPT_TOL_DISPLACEMENT  50
GEOM_OPT_TOL_ENERGY  10
GEOM_OPT_DRIVER  OPTIMIZE
GEOM_OPT_MAX_CYCLES  200
$end

--------------------------------------------------------------
 ----------------------------------------------------------------
             Standard Nuclear Orientation (Angstroms)
    I     Atom           X                Y                Z
 ----------------------------------------------------------------
    1      H       0.0262024797    -0.0001496570     1.4859360689
    2      Si      0.7853657542    -0.0000183099     0.2047017742
    3      C       0.3335524141     1.5337371312    -0.7611679415
    4      H      -0.7265820408     1.5386366710    -1.0085771720
    5      H       0.5581660115     2.4388183680    -0.1993205049
    6      H       0.8948834909     1.5729404306    -1.6940577948
    7      C       2.6110455910     0.0003353896     0.6140893507
    8      H       2.8861494664     0.8807446017     1.1922698466
    9      H       3.2071154925     0.0004083815    -0.2976605335
   10      H       2.8864721160    -0.8798991533     1.1923642214
   11      C       0.3340805780    -1.5340216576    -0.7610277238
   12      H       0.8954666976    -1.5731574899    -1.6938871433
   13      H       0.5588995755    -2.4389614122    -0.1990125789
   14      H      -0.7260315247    -1.5392371724    -1.0084835619
   15      N      -3.0450951643     0.0001335558    -0.3050917335
   16      C      -2.8565708670    -0.0001281147     0.8428986472
   17      H      -2.6728424709    -0.0003586104     1.8914924517
 ----------------------------------------------------------------
 Molecular Point Group                 C1    NOp =  1
 Largest Abelian Subgroup              C1    NOp =  1
 Nuclear Repulsion Energy =         275.47627205 hartrees
 There are       28 alpha and       28 beta electrons
 Requested basis set is def2-SVPD
 There are 94 shells and 212 basis functions

 Total QAlloc Memory Limit   8000 MB
 Mega-Array Size      1956 MB
 MEM_STATIC part      2000 MB

 A cutoff of  1.0D-14 yielded   4328 shell pairs
 There are     22118 function pairs (     24717 Cartesian)
 Smallest overlap matrix eigenvalue = 1.67E-04

 Scale SEOQF with 1.000000e-01/1.000000e-01/1.000000e-01

 Standard Electronic Orientation quadrupole field applied
 Nucleus-field energy     =     0.0000000075 hartrees
 Attempting to make child job directory: /scratch/qchem_scratch/qchem11006//Frg1/
 Attempting to make child job directory: /scratch/qchem_scratch/qchem11006//Frg2/
 Creating input file /scratch/qchem_scratch/qchem11006/Frg1.input
 using default PutDataFrgm: nothing
 calling putenv with: QCSCRATCH=/scratch/qchem_scratch/qchem11006/ 
 Spawning Job For Fragment 0
 Done Job For Fragment 0
 calling putenv with: QCSCRATCH=/scratch/qchem_scratch 
 calling putenv with: QCTHREADS=24 
 Creating input file /scratch/qchem_scratch/qchem11006/Frg2.input
 using default PutDataFrgm: nothing
 calling putenv with: QCSCRATCH=/scratch/qchem_scratch/qchem11006/ 
 Spawning Job For Fragment 1
 Done Job For Fragment 1
 calling putenv with: QCSCRATCH=/scratch/qchem_scratch 
 calling putenv with: QCTHREADS=24 
 Time for running child jobs:  CPU 3.98 s  wall 13.50 s
In frgmchild_fg_r_u. Opt. 5

 -----------------------------------------------------------------------
  General SCF calculation program by
  Eric Jon Sundstrom, Paul Horn, Yuezhi Mao, Dmitri Zuev, Alec White,
  David Stuck, Shaama M.S., Shane Yost, Joonho Lee, David Small,
  Daniel Levine, Susi Lehtola, Hugh Burton, Evgeny Epifanovsky,
  Bang C. Huynh
 -----------------------------------------------------------------------
 Exchange:     0.1670 Hartree-Fock + 1.0000 wB97X-V + LR-HF
 Correlation:  1.0000 wB97X-V
 Using Euler-Maclaurin-Lebedev (75,302) quadrature formula
 Nonlocal Correlation:  VV10 with C = 0.0100 and b = 6.00 and scale = 1.00000
 Grid used for NLC:  SG-1 standard quadrature
 using 24 threads for integral computing
 -------------------------------------------------------
 OpenMP Integral computing Module                
 Release: version 1.0, May 2013, Q-Chem Inc. Pittsburgh 
 -------------------------------------------------------
 A restricted SCF calculation will be
 performed using DIIS
 SCF converges when DIIS error is below 1.0e-09
 ---------------------------------------
  Cycle       Energy         DIIS error
 ---------------------------------------
    1    -502.9341101851      7.00e-04  
    2    -502.9365077741      9.35e-05  
    3    -502.9366253883      4.90e-05  
    4    -502.9366375777      3.68e-05  
    5    -502.9366450721      7.62e-06  
    6    -502.9366456001      1.83e-06  
    7    -502.9366456345      5.82e-07  
    8    -502.9366456388      1.25e-07  
    9    -502.9366456392      5.14e-08  
   10    -502.9366456392      1.94e-08  
   11    -502.9366456392      5.88e-09  
   12    -502.9366456392      1.21e-09  
   13    -502.9366456392      3.37e-10  Convergence criterion met
 ---------------------------------------
 SCF time:   CPU 397.67s  wall 17.00s 
 SCF   energy in the final basis set =     -502.9366456392
 Total energy in the final basis set =     -502.9366456392
 
 --------------------------------------------------------------
 
                    Orbital Energies (a.u.)
 --------------------------------------------------------------
 
 Alpha MOs
 -- Occupied --
-66.1154 -14.4540 -10.3483 -10.2593 -10.2553 -10.2552  -5.3715  -3.7257
 -3.7248  -3.7247  -1.0453  -0.8423  -0.8021  -0.7997  -0.7258  -0.5938
 -0.5315  -0.5203  -0.5182  -0.5001  -0.4976  -0.4966  -0.4871  -0.4723
 -0.4715  -0.4100  -0.4027  -0.4022
 -- Virtual --
  0.0787   0.0842   0.0847   0.0959   0.1092   0.1095   0.1375   0.1466
  0.1600   0.1638   0.1723   0.1799   0.1929   0.1990   0.2013   0.2037
  0.2175   0.2220   0.2282   0.2293   0.2380   0.2399   0.2572   0.2835
  0.2999   0.3007   0.3055   0.3091   0.3162   0.3246   0.3319   0.3365
  0.3492   0.3525   0.3804   0.3817   0.3895   0.3983   0.4008   0.4088
  0.4141   0.4214   0.4298   0.4352   0.4432   0.4447   0.4464   0.4524
  0.4566   0.4640   0.4753   0.4789   0.4857   0.4927   0.4969   0.5009
  0.5046   0.5170   0.5176   0.5357   0.5452   0.5466   0.5488   0.5600
  0.5673   0.5688   0.5933   0.5992   0.6074   0.6111   0.6132   0.6235
  0.6297   0.6356   0.6455   0.6581   0.6811   0.6852   0.6854   0.7003
  0.7290   0.7354   0.7700   0.7797   0.7951   0.8057   0.8371   0.8395
  0.8733   0.8807   0.9206   0.9303   0.9438   0.9671   0.9793   1.0148
  1.0228   1.0271   1.0501   1.0523   1.0849   1.0992   1.0996   1.1096
  1.1126   1.1238   1.1336   1.1482   1.1892   1.1936   1.1963   1.2155
  1.2555   1.2600   1.2670   1.2802   1.2885   1.3057   1.3654   1.3773
  1.4108   1.4140   1.4252   1.4561   1.5072   1.6058   1.6703   1.6772
  1.7066   1.7096   1.7479   1.7633   1.7946   1.7998   1.8289   1.8296
  1.8451   1.9321   1.9379   1.9424   1.9746   2.0444   2.0463   2.0549
  2.0653   2.0824   2.0869   2.1173   2.1252   2.1323   2.1532   2.1620
  2.1735   2.2018   2.2334   2.2434   2.2640   2.2786   2.3261   2.3586
  2.4795   2.5194   2.5226   2.5937   2.5959   2.6425   2.6437   2.6489
  2.6601   2.6686   2.6805   2.9450   2.9478   2.9578   3.1154   3.1257
  3.2064   3.2183   3.2246   3.2523   3.2621   3.2823   3.3040   3.9242
 --------------------------------------------------------------
 
          Ground-State Mulliken Net Atomic Charges

     Atom                 Charge (a.u.)
  ----------------------------------------
      1 H                     0.346296
      2 Si                   -0.702022
      3 C                     0.299929
      4 H                    -0.183134
      5 H                    -0.038506
      6 H                     0.002259
      7 C                     0.288063
      8 H                    -0.053733
      9 H                    -0.050311
     10 H                    -0.053774
     11 C                     0.299695
     12 H                     0.002193
     13 H                    -0.038487
     14 H                    -0.182842
     15 N                    -0.105308
     16 C                     0.337014
     17 H                    -0.167333
  ----------------------------------------
  Sum of atomic charges =     0.000000

 -----------------------------------------------------------------
                    Cartesian Multipole Moments
 -----------------------------------------------------------------
    Charge (ESU x 10^10)
                -0.0000
    Dipole Moment (Debye)
         X       0.6882      Y      -0.0005      Z       2.2875
       Tot       2.3888
    Quadrupole Moments (Debye-Ang)
        XX     -50.2028     XY       0.0019     YY     -47.6357
        XZ      -8.6082     YZ      -0.0007     ZZ     -44.3027
    Octopole Moments (Debye-Ang^2)
       XXX       8.9594    XXY      -0.0065    XYY       1.4798
       YYY       0.0021    XXZ      21.5768    XYZ       0.0009
       YYZ       3.3155    XZZ      -8.5213    YZZ      -0.0017
       ZZZ       5.7403
    Hexadecapole Moments (Debye-Ang^3)
      XXXX   -1150.7950   XXXY       0.0117   XXYY    -230.1615
      XYYY       0.0026   YYYY    -319.2868   XXXZ     -75.4855
      XXYZ      -0.0066   XYYZ       2.3650   YYYZ      -0.0018
      XXZZ    -184.1163   XYZZ       0.0052   YYZZ     -89.4848
      XZZZ     -31.4150   YZZZ      -0.0033   ZZZZ    -197.8430
 -----------------------------------------------------------------
 Calculating analytic gradient of the SCF energy
 Gradient of SCF Energy
            1           2           3           4           5           6
    1   0.0027164  -0.0001894  -0.0004406   0.0081828  -0.0017389  -0.0044185
    2  -0.0000014   0.0000003   0.0032390  -0.0003289  -0.0076439  -0.0005655
    3  -0.0049970   0.0006058  -0.0024001   0.0021586  -0.0044133   0.0077122
            7           8           9          10          11          12
    1   0.0042737  -0.0025311  -0.0051065  -0.0025364  -0.0004470  -0.0044193
    2  -0.0000046  -0.0071204   0.0000003   0.0071243  -0.0032384   0.0005689
    3   0.0005225  -0.0047544   0.0073306  -0.0047576  -0.0024070   0.0077103
           13          14          15          16          17
    1  -0.0017410   0.0081914  -0.0041891   0.0065911  -0.0021978
    2   0.0076373   0.0003320   0.0000068  -0.0000087   0.0000030
    3  -0.0044063   0.0021609  -0.0253528   0.0375502  -0.0122627
 Max gradient component =       3.755E-02
 RMS gradient           =       7.741E-03
 Gradient time:  CPU 201.25 s  wall 8.44 s
 Geometry Optimization Parameters
   NAtoms,    NIC,     NZ,  NCons,   NDum,   NFix, NCnnct, MaxDiis
       17     141       0       0       0       0       0       0


** GEOMETRY OPTIMIZATION IN DELOCALIZED INTERNAL COORDINATES **
   Searching for a Minimum

   Optimization Cycle:   1

                       Coordinates (Angstroms)
     ATOM                X               Y               Z
      1  H         0.0262024797   -0.0001496570    1.4859360689
      2  Si        0.7853657542   -0.0000183099    0.2047017742
      3  C         0.3335524141    1.5337371312   -0.7611679415
      4  H        -0.7265820408    1.5386366710   -1.0085771720
      5  H         0.5581660115    2.4388183680   -0.1993205049
      6  H         0.8948834909    1.5729404306   -1.6940577948
      7  C         2.6110455910    0.0003353896    0.6140893507
      8  H         2.8861494664    0.8807446017    1.1922698466
      9  H         3.2071154925    0.0004083815   -0.2976605335
     10  H         2.8864721160   -0.8798991533    1.1923642214
     11  C         0.3340805780   -1.5340216576   -0.7610277238
     12  H         0.8954666976   -1.5731574899   -1.6938871433
     13  H         0.5588995755   -2.4389614122   -0.1990125789
     14  H        -0.7260315247   -1.5392371724   -1.0084835619
     15  N        -3.0450951643    0.0001335558   -0.3050917335
     16  C        -2.8565708670   -0.0001281147    0.8428986472
     17  H        -2.6728424709   -0.0003586104    1.8914924517
   Point Group: c1    Number of degrees of freedom:    45


   Energy is   -502.936645639


 Attempting to generate delocalized internal coordinates
 Initial Hessian constructed with Jon Baker's OPTIMIZE code

 45 Hessian modes will be used to form the next step
  Hessian Eigenvalues:
     0.003211    0.004152    0.004906    0.007793    0.013979    0.016460
     0.017961    0.034668    0.035099    0.038784    0.044153    0.053888
     0.055557    0.056452    0.057244    0.065904    0.075814    0.082317
     0.107514    0.108140    0.112631    0.112814    0.114991    0.121004
     0.147688    0.150435    0.160000    0.160000    0.160000    0.169204
     0.175473    0.206315    0.206618    0.212353    0.311758    0.334170
     0.348757    0.348757    0.348930    0.349605    0.349618    0.349725
     0.349736    0.359342    1.185196

 Minimum search - taking simple RFO step
 Searching for Lamda that Minimizes Along All modes
 Value Taken    Lamda =  -0.00361861
 Step Taken.  Stepsize is  0.107544

                             Maximum     Tolerance    Cnvgd?
         Gradient           0.017533      0.000050      NO
         Displacement       0.054366      0.000050      NO
         Energy change     *********      0.000000      NO


 New Cartesian Coordinates Obtained by Inverse Iteration

 Displacement from previous Coordinates is:  0.162558
 ----------------------------------------------------------------
             Standard Nuclear Orientation (Angstroms)
    I     Atom           X                Y                Z
 ----------------------------------------------------------------
    1      H       0.0184501307    -0.0001187421     1.4975189990
    2      Si      0.7890233720    -0.0000091017     0.2037233480
    3      C       0.3303459702     1.5463219836    -0.7671439435
    4      H      -0.7426077124     1.5482016527    -1.0149787402
    5      H       0.5552568819     2.4638363552    -0.1993520631
    6      H       0.8951064873     1.5897687411    -1.7133863164
    7      C       2.6280334992     0.0003365165     0.6221563469
    8      H       2.9065457643     0.8909449777     1.2083457455
    9      H       3.2356933571     0.0004016065    -0.2980159111
   10      H       2.9068688880    -0.8901050648     1.2084444531
   11      C       0.3308689882    -1.5465942916    -0.7669970027
   12      H       0.8956815309    -1.5899941864    -1.7132083459
   13      H       0.5560070883    -2.4639646098    -0.1990646325
   14      H      -0.7420749438    -1.5488101618    -1.0148775984
   15      N      -3.0575109468     0.0001073241    -0.2993364946
   16      C      -2.8707431639    -0.0001390197     0.8381525160
   17      H      -2.6846675914    -0.0003610274     1.9034853128
 ----------------------------------------------------------------
 Molecular Point Group                 C1    NOp =  1
 Largest Abelian Subgroup              C1    NOp =  1
 Nuclear Repulsion Energy =         273.66780178 hartrees
 There are       28 alpha and       28 beta electrons
 Applying Cartesian multipole field
    Component          Value
    ---------          -----
     (2,0,0)        1.00000E-11
     (0,2,0)        2.00000E-11
     (0,0,2)       -3.00000E-11
 Nucleus-field energy     =     0.0000000076 hartrees
 Requested basis set is def2-SVPD
 There are 94 shells and 212 basis functions
 A cutoff of  1.0D-14 yielded   4328 shell pairs
 There are     22118 function pairs (     24717 Cartesian)
 Smallest overlap matrix eigenvalue = 1.77E-04
 Read the previous MOs as SCF guess

 -----------------------------------------------------------------------
  General SCF calculation program by
  Eric Jon Sundstrom, Paul Horn, Yuezhi Mao, Dmitri Zuev, Alec White,
  David Stuck, Shaama M.S., Shane Yost, Joonho Lee, David Small,
  Daniel Levine, Susi Lehtola, Hugh Burton, Evgeny Epifanovsky,
  Bang C. Huynh
 -----------------------------------------------------------------------
 Exchange:     0.1670 Hartree-Fock + 1.0000 wB97X-V + LR-HF
 Correlation:  1.0000 wB97X-V
 Using Euler-Maclaurin-Lebedev (75,302) quadrature formula
 Nonlocal Correlation:  VV10 with C = 0.0100 and b = 6.00 and scale = 1.00000
 Grid used for NLC:  SG-1 standard quadrature
 A restricted SCF calculation will be
 performed using DIIS
 SCF converges when DIIS error is below 1.0e-09
 ---------------------------------------
  Cycle       Energy         DIIS error
 ---------------------------------------
    1    -502.9379241390      3.55e-04  
    2    -502.9383638840      7.89e-05  
    3    -502.9383866646      5.37e-05  
    4    -502.9384005840      1.78e-05  
    5    -502.9384020585      4.81e-06  
    6    -502.9384022039      7.72e-07  
    7    -502.9384022093      1.49e-07  
    8    -502.9384022097      2.72e-08  
    9    -502.9384022097      1.07e-08  
   10    -502.9384022097      3.80e-09  
   11    -502.9384022097      7.93e-10  Convergence criterion met
 ---------------------------------------
 SCF time:   CPU 327.77s  wall 14.00s 
 SCF   energy in the final basis set =     -502.9384022097
 Total energy in the final basis set =     -502.9384022097
 
 --------------------------------------------------------------
 
                    Orbital Energies (a.u.)
 --------------------------------------------------------------
 
 Alpha MOs
 -- Occupied --
-66.1208 -14.4507 -10.3463 -10.2651 -10.2609 -10.2609  -5.3757  -3.7299
 -3.7291  -3.7290  -1.0486  -0.8379  -0.7984  -0.7960  -0.7199  -0.5922
 -0.5283  -0.5176  -0.5150  -0.4984  -0.4955  -0.4943  -0.4855  -0.4736
 -0.4731  -0.4091  -0.4023  -0.4019
 -- Virtual --
  0.0787   0.0871   0.0871   0.0951   0.1085   0.1092   0.1373   0.1450
  0.1596   0.1621   0.1710   0.1785   0.1900   0.1972   0.1997   0.2010
  0.2143   0.2198   0.2262   0.2275   0.2371   0.2389   0.2548   0.2835
  0.2966   0.2973   0.3025   0.3066   0.3136   0.3235   0.3300   0.3346
  0.3464   0.3518   0.3783   0.3788   0.3875   0.3945   0.3995   0.4060
  0.4117   0.4189   0.4275   0.4327   0.4416   0.4427   0.4439   0.4488
  0.4535   0.4619   0.4725   0.4758   0.4843   0.4898   0.4935   0.4992
  0.5019   0.5145   0.5158   0.5313   0.5421   0.5448   0.5457   0.5563
  0.5655   0.5670   0.5899   0.5979   0.6038   0.6079   0.6109   0.6204
  0.6276   0.6328   0.6418   0.6549   0.6795   0.6825   0.6839   0.6979
  0.7245   0.7294   0.7674   0.7780   0.7902   0.8038   0.8368   0.8368
  0.8692   0.8785   0.9157   0.9288   0.9404   0.9628   0.9759   1.0107
  1.0196   1.0244   1.0455   1.0480   1.0807   1.0912   1.0914   1.1032
  1.1055   1.1191   1.1272   1.1510   1.1831   1.1860   1.1880   1.2106
  1.2538   1.2567   1.2652   1.2769   1.2833   1.3005   1.3608   1.3788
  1.4034   1.4080   1.4211   1.4540   1.5062   1.6067   1.6693   1.6791
  1.7055   1.7097   1.7481   1.7636   1.7965   1.8002   1.8211   1.8238
  1.8390   1.9263   1.9351   1.9419   1.9706   2.0290   2.0319   2.0357
  2.0514   2.0668   2.0680   2.1017   2.1120   2.1199   2.1374   2.1554
  2.1559   2.1823   2.2156   2.2270   2.2467   2.2603   2.3077   2.3439
  2.4634   2.5018   2.5055   2.5944   2.5972   2.6208   2.6221   2.6272
  2.6370   2.6448   2.6556   2.9130   2.9170   2.9248   3.1218   3.1316
  3.1850   3.1955   3.2020   3.2280   3.2388   3.2579   3.3085   3.9190
 --------------------------------------------------------------
 
          Ground-State Mulliken Net Atomic Charges

     Atom                 Charge (a.u.)
  ----------------------------------------
      1 H                     0.334196
      2 Si                   -0.628046
      3 C                     0.189556
      4 H                    -0.141911
      5 H                    -0.008995
      6 H                     0.023989
      7 C                     0.174560
      8 H                    -0.023157
      9 H                    -0.021695
     10 H                    -0.023165
     11 C                     0.189354
     12 H                     0.023918
     13 H                    -0.009026
     14 H                    -0.141616
     15 N                    -0.094015
     16 C                     0.269831
     17 H                    -0.113776
  ----------------------------------------
  Sum of atomic charges =     0.000000

 -----------------------------------------------------------------
                    Cartesian Multipole Moments
 -----------------------------------------------------------------
    Charge (ESU x 10^10)
                -0.0000
    Dipole Moment (Debye)
         X       0.6898      Y      -0.0005      Z       2.2983
       Tot       2.3996
    Quadrupole Moments (Debye-Ang)
        XX     -50.3374     XY       0.0018     YY     -47.7484
        XZ      -8.6946     YZ      -0.0007     ZZ     -44.3935
    Octopole Moments (Debye-Ang^2)
       XXX       8.6701    XXY      -0.0064    XYY       1.3320
       YYY       0.0018    XXZ      21.9711    XYZ       0.0011
       YYZ       3.3601    XZZ      -8.7929    YZZ      -0.0019
       ZZZ       5.9468
    Hexadecapole Moments (Debye-Ang^3)
      XXXX   -1163.5386   XXXY       0.0084   XXYY    -233.1830
      XYYY      -0.0002   YYYY    -325.1877   XXXZ     -77.4293
      XXYZ      -0.0067   XYYZ       2.2694   YYYZ      -0.0009
      XXZZ    -186.0282   XYZZ       0.0044   YYZZ     -91.0432
      XZZZ     -32.7724   YZZZ      -0.0035   ZZZZ    -200.4433
 -----------------------------------------------------------------
 Calculating analytic gradient of the SCF energy
 Gradient of SCF Energy
            1           2           3           4           5           6
    1  -0.0004350   0.0001877  -0.0001407  -0.0000538   0.0000496   0.0001616
    2  -0.0000012   0.0000010   0.0001063  -0.0002233   0.0000776  -0.0001710
    3   0.0001094  -0.0004592  -0.0000892   0.0001994   0.0001168  -0.0000241
            7           8           9          10          11          12
    1   0.0002243  -0.0000327  -0.0000962  -0.0000329  -0.0001395   0.0001612
    2  -0.0000002   0.0001006   0.0000003  -0.0001003  -0.0001095   0.0001718
    3   0.0000164   0.0000572  -0.0001485   0.0000576  -0.0000911  -0.0000238
           13          14          15          16          17
    1   0.0000489  -0.0000530   0.0001230  -0.0001001   0.0001274
    2  -0.0000765   0.0002234   0.0000007   0.0000003   0.0000000
    3   0.0001179   0.0001994   0.0012605  -0.0024512   0.0011525
 Max gradient component =       2.451E-03
 RMS gradient           =       4.416E-04
 Gradient time:  CPU 197.18 s  wall 8.22 s
 Geometry Optimization Parameters
   NAtoms,    NIC,     NZ,  NCons,   NDum,   NFix, NCnnct, MaxDiis
       17     141       0       0       0       0       0       0

 Cartesian Hessian Update
 Hessian updated using BFGS update


** GEOMETRY OPTIMIZATION IN DELOCALIZED INTERNAL COORDINATES **
   Searching for a Minimum

   Optimization Cycle:   2

                       Coordinates (Angstroms)
     ATOM                X               Y               Z
      1  H         0.0184501307   -0.0001187421    1.4975189990
      2  Si        0.7890233720   -0.0000091017    0.2037233480
      3  C         0.3303459702    1.5463219836   -0.7671439435
      4  H        -0.7426077124    1.5482016527   -1.0149787402
      5  H         0.5552568819    2.4638363552   -0.1993520631
      6  H         0.8951064873    1.5897687411   -1.7133863164
      7  C         2.6280334992    0.0003365165    0.6221563469
      8  H         2.9065457643    0.8909449777    1.2083457455
      9  H         3.2356933571    0.0004016065   -0.2980159111
     10  H         2.9068688880   -0.8901050648    1.2084444531
     11  C         0.3308689882   -1.5465942916   -0.7669970027
     12  H         0.8956815309   -1.5899941864   -1.7132083459
     13  H         0.5560070883   -2.4639646098   -0.1990646325
     14  H        -0.7420749438   -1.5488101618   -1.0148775984
     15  N        -3.0575109468    0.0001073241   -0.2993364946
     16  C        -2.8707431639   -0.0001390197    0.8381525160
     17  H        -2.6846675914   -0.0003610274    1.9034853128
   Point Group: c1    Number of degrees of freedom:    45


   Energy is   -502.938402210

 Hessian updated using BFGS update

 43 Hessian modes will be used to form the next step
  Hessian Eigenvalues:
     0.004152    0.004906    0.007793    0.013972    0.016460    0.017961
     0.034668    0.035105    0.038769    0.044153    0.053893    0.055557
     0.056452    0.057244    0.065953    0.075814    0.082317    0.107513
     0.108140    0.112629    0.112633    0.114991    0.120986    0.147688
     0.150185    0.159885    0.160007    0.169753    0.175801    0.205167
     0.206618    0.212566    0.311758    0.333797    0.348168    0.348757
     0.348863    0.349511    0.349611    0.349679    0.349731    0.369194
     1.199173

 Minimum search - taking simple RFO step
 Searching for Lamda that Minimizes Along All modes
 Value Taken    Lamda =  -0.00001023
 Step Taken.  Stepsize is  0.011706

                             Maximum     Tolerance    Cnvgd?
         Gradient           0.001282      0.000050      NO
         Displacement       0.005587      0.000050      NO
         Energy change     -0.001757      0.000000      NO


 New Cartesian Coordinates Obtained by Inverse Iteration

 Displacement from previous Coordinates is:  0.011888
 ----------------------------------------------------------------
             Standard Nuclear Orientation (Angstroms)
    I     Atom           X                Y                Z
 ----------------------------------------------------------------
    1      H       0.0205113316    -0.0000899997     1.4970746437
    2      Si      0.7892996322    -0.0000002874     0.2032150802
    3      C       0.3304115928     1.5469873992    -0.7676188792
    4      H      -0.7424434629     1.5494932833    -1.0160250010
    5      H       0.5547351910     2.4642681314    -0.1995447637
    6      H       0.8945105113     1.5924503721    -1.7140299366
    7      C       2.6279936820     0.0003320513     0.6225725998
    8      H       2.9063013313     0.8906619277     1.2090525706
    9      H       3.2373754172     0.0003912267    -0.2963707978
   10      H       2.9066117937    -0.8898370650     1.2091484360
   11      C       0.3309192461    -1.5472428591    -0.7674613047
   12      H       0.8950621569    -1.5926620640    -1.7138469352
   13      H       0.5554845005    -2.4643836363    -0.1992575589
   14      H      -0.7419269889    -1.5500972186    -1.0159078149
   15      N      -3.0585303489     0.0000801292    -0.2984096298
   16      C      -2.8712669431    -0.0001573628     0.8395356111
   17      H      -2.6847710431    -0.0003710758     1.9033393534
 ----------------------------------------------------------------
 Molecular Point Group                 C1    NOp =  1
 Largest Abelian Subgroup              C1    NOp =  1
 Nuclear Repulsion Energy =         273.60958207 hartrees
 There are       28 alpha and       28 beta electrons
 Applying Cartesian multipole field
    Component          Value
    ---------          -----
     (2,0,0)        1.00000E-11
     (0,2,0)        2.00000E-11
     (0,0,2)       -3.00000E-11
 Nucleus-field energy     =     0.0000000076 hartrees
 Requested basis set is def2-SVPD
 There are 94 shells and 212 basis functions
 A cutoff of  1.0D-14 yielded   4328 shell pairs
 There are     22118 function pairs (     24717 Cartesian)
 Smallest overlap matrix eigenvalue = 1.77E-04
 Read the previous MOs as SCF guess

 -----------------------------------------------------------------------
  General SCF calculation program by
  Eric Jon Sundstrom, Paul Horn, Yuezhi Mao, Dmitri Zuev, Alec White,
  David Stuck, Shaama M.S., Shane Yost, Joonho Lee, David Small,
  Daniel Levine, Susi Lehtola, Hugh Burton, Evgeny Epifanovsky,
  Bang C. Huynh
 -----------------------------------------------------------------------
 Exchange:     0.1670 Hartree-Fock + 1.0000 wB97X-V + LR-HF
 Correlation:  1.0000 wB97X-V
 Using Euler-Maclaurin-Lebedev (75,302) quadrature formula
 Nonlocal Correlation:  VV10 with C = 0.0100 and b = 6.00 and scale = 1.00000
 Grid used for NLC:  SG-1 standard quadrature
 A restricted SCF calculation will be
 performed using DIIS
 SCF converges when DIIS error is below 1.0e-09
 ---------------------------------------
  Cycle       Energy         DIIS error
 ---------------------------------------
    1    -502.9384062582      2.56e-05  
    2    -502.9384085205      3.80e-06  
    3    -502.9384086152      3.04e-06  
    4    -502.9384086578      1.23e-06  
    5    -502.9384086667      3.16e-07  
    6    -502.9384086677      7.60e-08  
    7    -502.9384086677      2.41e-08  
    8    -502.9384086677      3.63e-09  
    9    -502.9384086677      9.54e-10  Convergence criterion met
 ---------------------------------------
 SCF time:   CPU 269.16s  wall 12.00s 
 SCF   energy in the final basis set =     -502.9384086677
 Total energy in the final basis set =     -502.9384086677
 
 --------------------------------------------------------------
 
                    Orbital Energies (a.u.)
 --------------------------------------------------------------
 
 Alpha MOs
 -- Occupied --
-66.1209 -14.4509 -10.3464 -10.2650 -10.2609 -10.2609  -5.3757  -3.7300
 -3.7291  -3.7290  -1.0484  -0.8378  -0.7984  -0.7960  -0.7203  -0.5924
 -0.5281  -0.5175  -0.5150  -0.4985  -0.4955  -0.4943  -0.4855  -0.4735
 -0.4730  -0.4092  -0.4024  -0.4019
 -- Virtual --
  0.0786   0.0870   0.0870   0.0952   0.1085   0.1092   0.1373   0.1452
  0.1596   0.1622   0.1710   0.1784   0.1901   0.1971   0.1997   0.2010
  0.2143   0.2198   0.2262   0.2274   0.2371   0.2389   0.2549   0.2835
  0.2966   0.2972   0.3025   0.3065   0.3136   0.3234   0.3300   0.3346
  0.3464   0.3518   0.3785   0.3788   0.3875   0.3945   0.3996   0.4059
  0.4118   0.4188   0.4275   0.4326   0.4416   0.4426   0.4439   0.4487
  0.4535   0.4618   0.4725   0.4758   0.4842   0.4897   0.4934   0.4992
  0.5021   0.5145   0.5158   0.5312   0.5420   0.5448   0.5457   0.5561
  0.5655   0.5669   0.5898   0.5979   0.6037   0.6079   0.6109   0.6203
  0.6275   0.6328   0.6418   0.6547   0.6793   0.6825   0.6837   0.6976
  0.7243   0.7292   0.7673   0.7779   0.7900   0.8038   0.8368   0.8368
  0.8691   0.8784   0.9158   0.9288   0.9404   0.9627   0.9758   1.0107
  1.0196   1.0245   1.0457   1.0482   1.0808   1.0911   1.0913   1.1031
  1.1053   1.1191   1.1270   1.1507   1.1827   1.1860   1.1878   1.2107
  1.2536   1.2564   1.2652   1.2768   1.2832   1.3000   1.3606   1.3786
  1.4031   1.4079   1.4211   1.4535   1.5060   1.6066   1.6690   1.6788
  1.7055   1.7099   1.7481   1.7641   1.7968   1.8005   1.8210   1.8237
  1.8390   1.9264   1.9352   1.9418   1.9704   2.0291   2.0321   2.0361
  2.0516   2.0669   2.0680   2.1015   2.1119   2.1203   2.1372   2.1553
  2.1562   2.1820   2.2150   2.2266   2.2461   2.2602   2.3094   2.3448
  2.4642   2.5027   2.5063   2.5941   2.5970   2.6208   2.6222   2.6272
  2.6371   2.6450   2.6556   2.9129   2.9165   2.9244   3.1218   3.1315
  3.1856   3.1959   3.2025   3.2284   3.2391   3.2584   3.3087   3.9200
 --------------------------------------------------------------
 
          Ground-State Mulliken Net Atomic Charges

     Atom                 Charge (a.u.)
  ----------------------------------------
      1 H                     0.334407
      2 Si                   -0.624162
      3 C                     0.189648
      4 H                    -0.141578
      5 H                    -0.009650
      6 H                     0.022581
      7 C                     0.175149
      8 H                    -0.023379
      9 H                    -0.022629
     10 H                    -0.023386
     11 C                     0.189462
     12 H                     0.022519
     13 H                    -0.009681
     14 H                    -0.141310
     15 N                    -0.094586
     16 C                     0.274986
     17 H                    -0.118390
  ----------------------------------------
  Sum of atomic charges =     0.000000

 -----------------------------------------------------------------
                    Cartesian Multipole Moments
 -----------------------------------------------------------------
    Charge (ESU x 10^10)
                -0.0000
    Dipole Moment (Debye)
         X       0.6895      Y      -0.0005      Z       2.2973
       Tot       2.3986
    Quadrupole Moments (Debye-Ang)
        XX     -50.3440     XY       0.0017     YY     -47.7420
        XZ      -8.6870     YZ      -0.0007     ZZ     -44.3855
    Octopole Moments (Debye-Ang^2)
       XXX       8.7481    XXY      -0.0061    XYY       1.3330
       YYY       0.0018    XXZ      21.9644    XYZ       0.0013
       YYZ       3.3336    XZZ      -8.8005    YZZ      -0.0019
       ZZZ       5.9367
    Hexadecapole Moments (Debye-Ang^3)
      XXXX   -1163.9109   XXXY       0.0048   XXYY    -233.3014
      XYYY      -0.0032   YYYY    -325.4168   XXXZ     -77.3122
      XXYZ      -0.0068   XYYZ       2.2798   YYYZ       0.0001
      XXZZ    -186.1085   XYZZ       0.0035   YYZZ     -91.0536
      XZZZ     -32.6743   YZZZ      -0.0030   ZZZZ    -200.5253
 -----------------------------------------------------------------
 Calculating analytic gradient of the SCF energy
 Gradient of SCF Energy
            1           2           3           4           5           6
    1  -0.0002122   0.0000938  -0.0000448  -0.0000374   0.0000126   0.0000461
    2  -0.0000007   0.0000006   0.0001978  -0.0001523   0.0000014  -0.0000616
    3  -0.0000758   0.0000078  -0.0000867   0.0001256   0.0000007  -0.0000003
            7           8           9          10          11          12
    1   0.0000965  -0.0000026  -0.0000604  -0.0000026  -0.0000440   0.0000458
    2   0.0000001   0.0000104   0.0000001  -0.0000102  -0.0001989   0.0000616
    3   0.0000873   0.0000006  -0.0000629   0.0000007  -0.0000876  -0.0000001
           13          14          15          16          17
    1   0.0000122  -0.0000366  -0.0000992   0.0002861  -0.0000534
    2  -0.0000010   0.0001518   0.0000009  -0.0000003   0.0000002
    3   0.0000012   0.0001252  -0.0001224   0.0000195   0.0000672
 Max gradient component =       2.861E-04
 RMS gradient           =       8.736E-05
 Gradient time:  CPU 197.23 s  wall 8.22 s
 Geometry Optimization Parameters
   NAtoms,    NIC,     NZ,  NCons,   NDum,   NFix, NCnnct, MaxDiis
       17     141       0       0       0       0       0       0

 Cartesian Hessian Update
 Hessian updated using BFGS update


** GEOMETRY OPTIMIZATION IN DELOCALIZED INTERNAL COORDINATES **
   Searching for a Minimum

   Optimization Cycle:   3

                       Coordinates (Angstroms)
     ATOM                X               Y               Z
      1  H         0.0205113316   -0.0000899997    1.4970746437
      2  Si        0.7892996322   -0.0000002874    0.2032150802
      3  C         0.3304115928    1.5469873992   -0.7676188792
      4  H        -0.7424434629    1.5494932833   -1.0160250010
      5  H         0.5547351910    2.4642681314   -0.1995447637
      6  H         0.8945105113    1.5924503721   -1.7140299366
      7  C         2.6279936820    0.0003320513    0.6225725998
      8  H         2.9063013313    0.8906619277    1.2090525706
      9  H         3.2373754172    0.0003912267   -0.2963707978
     10  H         2.9066117937   -0.8898370650    1.2091484360
     11  C         0.3309192461   -1.5472428591   -0.7674613047
     12  H         0.8950621569   -1.5926620640   -1.7138469352
     13  H         0.5554845005   -2.4643836363   -0.1992575589
     14  H        -0.7419269889   -1.5500972186   -1.0159078149
     15  N        -3.0585303489    0.0000801292   -0.2984096298
     16  C        -2.8712669431   -0.0001573628    0.8395356111
     17  H        -2.6847710431   -0.0003710758    1.9033393534
   Point Group: c1    Number of degrees of freedom:    45


   Energy is   -502.938408668

 Hessian updated using BFGS update

 44 Hessian modes will be used to form the next step
  Hessian Eigenvalues:
     0.003211    0.004090    0.004906    0.007793    0.011405    0.016460
     0.017936    0.034668    0.034757    0.038057    0.044153    0.053649
     0.055194    0.056452    0.057244    0.064158    0.075904    0.082317
     0.100799    0.107520    0.108140    0.112631    0.114991    0.119983
     0.138907    0.147688    0.158177    0.160339    0.171381    0.175273
     0.206618    0.211285    0.212340    0.311758    0.333826    0.348434
     0.348757    0.348869    0.349517    0.349611    0.349682    0.349731
     0.397997    1.293969

 Minimum search - taking simple RFO step
 Searching for Lamda that Minimizes Along All modes
 Value Taken    Lamda =  -0.00000306
 Step Taken.  Stepsize is  0.013975

                             Maximum     Tolerance    Cnvgd?
         Gradient           0.000170      0.000050      NO
         Displacement       0.005881      0.000050      NO
         Energy change     -0.000006      0.000000      NO


 New Cartesian Coordinates Obtained by Inverse Iteration

 Displacement from previous Coordinates is:  0.010865
 ----------------------------------------------------------------
             Standard Nuclear Orientation (Angstroms)
    I     Atom           X                Y                Z
 ----------------------------------------------------------------
    1      H       0.0223911734    -0.0000550501     1.4970019944
    2      Si      0.7895532126     0.0000115267     0.2024982228
    3      C       0.3306535818     1.5473990852    -0.7678519269
    4      H      -0.7420261622     1.5508348915    -1.0171327535
    5      H       0.5544800649     2.4642292302    -0.1989178560
    6      H       0.8947482284     1.5946838813    -1.7141105306
    7      C       2.6280364360     0.0003254210     0.6221923268
    8      H       2.9059685831     0.8904877346     1.2090466048
    9      H       3.2389636433     0.0003772613    -0.2956711256
   10      H       2.9062602541    -0.8896834917     1.2091407648
   11      C       0.3311396758    -1.5476320371    -0.7676794529
   12      H       0.8952691133    -1.5948736313    -1.7139191657
   13      H       0.5552231735    -2.4643247831    -0.1986248260
   14      H      -0.7415325282    -1.5514285263    -1.0169931080
   15      N      -3.0601485371     0.0000431416    -0.2976342101
   16      C      -2.8728298490    -0.0001836831     0.8403595043
   17      H      -2.6858724639    -0.0003880186     1.9037612104
 ----------------------------------------------------------------
 Molecular Point Group                 C1    NOp =  1
 Largest Abelian Subgroup              C1    NOp =  1
 Nuclear Repulsion Energy =         273.56348365 hartrees
 There are       28 alpha and       28 beta electrons
 Applying Cartesian multipole field
    Component          Value
    ---------          -----
     (2,0,0)        1.00000E-11
     (0,2,0)        2.00000E-11
     (0,0,2)       -3.00000E-11
 Nucleus-field energy     =     0.0000000076 hartrees
 Requested basis set is def2-SVPD
 There are 94 shells and 212 basis functions
 A cutoff of  1.0D-14 yielded   4327 shell pairs
 There are     22103 function pairs (     24699 Cartesian)
 Smallest overlap matrix eigenvalue = 1.77E-04
 Read the previous MOs as SCF guess

 -----------------------------------------------------------------------
  General SCF calculation program by
  Eric Jon Sundstrom, Paul Horn, Yuezhi Mao, Dmitri Zuev, Alec White,
  David Stuck, Shaama M.S., Shane Yost, Joonho Lee, David Small,
  Daniel Levine, Susi Lehtola, Hugh Burton, Evgeny Epifanovsky,
  Bang C. Huynh
 -----------------------------------------------------------------------
 Exchange:     0.1670 Hartree-Fock + 1.0000 wB97X-V + LR-HF
 Correlation:  1.0000 wB97X-V
 Using Euler-Maclaurin-Lebedev (75,302) quadrature formula
 Nonlocal Correlation:  VV10 with C = 0.0100 and b = 6.00 and scale = 1.00000
 Grid used for NLC:  SG-1 standard quadrature
 A restricted SCF calculation will be
 performed using DIIS
 SCF converges when DIIS error is below 1.0e-09
 ---------------------------------------
  Cycle       Energy         DIIS error
 ---------------------------------------
    1    -502.9384091738      1.90e-05  
    2    -502.9384108010      2.67e-06  
    3    -502.9384109010      8.35e-07  
    4    -502.9384109097      4.25e-07  
    5    -502.9384109112      1.35e-07  
    6    -502.9384109114      7.42e-08  
    7    -502.9384109114      2.05e-08  
    8    -502.9384109114      2.80e-09  
    9    -502.9384109114      8.23e-10  Convergence criterion met
 ---------------------------------------
 SCF time:   CPU 269.56s  wall 12.00s 
 SCF   energy in the final basis set =     -502.9384109114
 Total energy in the final basis set =     -502.9384109114
 
 --------------------------------------------------------------
 
                    Orbital Energies (a.u.)
 --------------------------------------------------------------
 
 Alpha MOs
 -- Occupied --
-66.1209 -14.4509 -10.3464 -10.2650 -10.2609 -10.2609  -5.3757  -3.7300
 -3.7291  -3.7290  -1.0484  -0.8378  -0.7984  -0.7960  -0.7204  -0.5925
 -0.5280  -0.5174  -0.5149  -0.4984  -0.4954  -0.4942  -0.4854  -0.4735
 -0.4730  -0.4093  -0.4025  -0.4020
 -- Virtual --
  0.0786   0.0869   0.0870   0.0952   0.1085   0.1092   0.1373   0.1452
  0.1596   0.1623   0.1710   0.1784   0.1901   0.1971   0.1996   0.2009
  0.2142   0.2198   0.2261   0.2274   0.2370   0.2389   0.2549   0.2835
  0.2967   0.2972   0.3025   0.3064   0.3136   0.3234   0.3300   0.3346
  0.3463   0.3518   0.3785   0.3788   0.3875   0.3945   0.3996   0.4058
  0.4118   0.4188   0.4274   0.4326   0.4416   0.4425   0.4438   0.4487
  0.4534   0.4618   0.4724   0.4757   0.4841   0.4897   0.4933   0.4992
  0.5022   0.5144   0.5157   0.5312   0.5419   0.5449   0.5457   0.5559
  0.5655   0.5668   0.5897   0.5979   0.6037   0.6079   0.6109   0.6202
  0.6275   0.6328   0.6419   0.6546   0.6791   0.6825   0.6836   0.6974
  0.7241   0.7292   0.7671   0.7777   0.7899   0.8036   0.8367   0.8368
  0.8689   0.8783   0.9159   0.9287   0.9402   0.9627   0.9758   1.0107
  1.0196   1.0246   1.0458   1.0482   1.0809   1.0911   1.0912   1.1031
  1.1051   1.1190   1.1267   1.1506   1.1824   1.1860   1.1878   1.2107
  1.2536   1.2562   1.2652   1.2767   1.2831   1.2997   1.3605   1.3784
  1.4029   1.4078   1.4212   1.4531   1.5058   1.6065   1.6688   1.6786
  1.7055   1.7100   1.7480   1.7645   1.7968   1.8008   1.8210   1.8238
  1.8389   1.9265   1.9355   1.9417   1.9701   2.0292   2.0323   2.0364
  2.0516   2.0669   2.0681   2.1013   2.1117   2.1203   2.1371   2.1552
  2.1562   2.1817   2.2147   2.2263   2.2457   2.2604   2.3097   2.3453
  2.4648   2.5034   2.5068   2.5939   2.5968   2.6208   2.6222   2.6271
  2.6372   2.6451   2.6556   2.9127   2.9161   2.9241   3.1218   3.1315
  3.1859   3.1961   3.2028   3.2286   3.2393   3.2586   3.3089   3.9203
 --------------------------------------------------------------
 
          Ground-State Mulliken Net Atomic Charges

     Atom                 Charge (a.u.)
  ----------------------------------------
      1 H                     0.334557
      2 Si                   -0.621591
      3 C                     0.189262
      4 H                    -0.141339
      5 H                    -0.009630
      6 H                     0.021649
      7 C                     0.175422
      8 H                    -0.023246
      9 H                    -0.023657
     10 H                    -0.023251
     11 C                     0.189095
     12 H                     0.021600
     13 H                    -0.009660
     14 H                    -0.141106
     15 N                    -0.094558
     16 C                     0.276041
     17 H                    -0.119587
  ----------------------------------------
  Sum of atomic charges =     0.000000

 -----------------------------------------------------------------
                    Cartesian Multipole Moments
 -----------------------------------------------------------------
    Charge (ESU x 10^10)
                -0.0000
    Dipole Moment (Debye)
         X       0.6888      Y      -0.0005      Z       2.2964
       Tot       2.3975
    Quadrupole Moments (Debye-Ang)
        XX     -50.3494     XY       0.0016     YY     -47.7364
        XZ      -8.6881     YZ      -0.0008     ZZ     -44.3779
    Octopole Moments (Debye-Ang^2)
       XXX       8.8194    XXY      -0.0056    XYY       1.3364
       YYY       0.0020    XXZ      21.9836    XYZ       0.0015
       YYZ       3.3193    XZZ      -8.8110    YZZ      -0.0019
       ZZZ       5.9487
    Hexadecapole Moments (Debye-Ang^3)
      XXXX   -1164.6789   XXXY      -0.0001   XXYY    -233.4596
      XYYY      -0.0073   YYYY    -325.5970   XXXZ     -77.2666
      XXYZ      -0.0070   XYYZ       2.3144   YYYZ       0.0013
      XXZZ    -186.1977   XYZZ       0.0024   YYZZ     -91.0472
      XZZZ     -32.5688   YZZZ      -0.0022   ZZZZ    -200.5132
 -----------------------------------------------------------------
 Calculating analytic gradient of the SCF energy
 Gradient of SCF Energy
            1           2           3           4           5           6
    1  -0.0000994   0.0000564   0.0000376  -0.0000293  -0.0000080  -0.0000268
    2  -0.0000004   0.0000002   0.0001201  -0.0000841  -0.0000191   0.0000082
    3  -0.0001134   0.0001608  -0.0000540   0.0000670  -0.0000406   0.0000056
            7           8           9          10          11          12
    1  -0.0000250   0.0000133  -0.0000154   0.0000134   0.0000380  -0.0000270
    2   0.0000002  -0.0000238  -0.0000001   0.0000239  -0.0001194  -0.0000086
    3   0.0000754  -0.0000212  -0.0000047  -0.0000212  -0.0000538   0.0000056
           13          14          15          16          17
    1  -0.0000081  -0.0000286  -0.0001176   0.0003100  -0.0000835
    2   0.0000190   0.0000831   0.0000008  -0.0000003   0.0000002
    3  -0.0000406   0.0000663  -0.0002750   0.0004200  -0.0001764
 Max gradient component =       4.200E-04
 RMS gradient           =       1.018E-04
 Gradient time:  CPU 197.32 s  wall 8.22 s
 Geometry Optimization Parameters
   NAtoms,    NIC,     NZ,  NCons,   NDum,   NFix, NCnnct, MaxDiis
       17     141       0       0       0       0       0       0

 Cartesian Hessian Update
 Hessian updated using BFGS update


** GEOMETRY OPTIMIZATION IN DELOCALIZED INTERNAL COORDINATES **
   Searching for a Minimum

   Optimization Cycle:   4

                       Coordinates (Angstroms)
     ATOM                X               Y               Z
      1  H         0.0223911734   -0.0000550501    1.4970019944
      2  Si        0.7895532126    0.0000115267    0.2024982228
      3  C         0.3306535818    1.5473990852   -0.7678519269
      4  H        -0.7420261622    1.5508348915   -1.0171327535
      5  H         0.5544800649    2.4642292302   -0.1989178560
      6  H         0.8947482284    1.5946838813   -1.7141105306
      7  C         2.6280364360    0.0003254210    0.6221923268
      8  H         2.9059685831    0.8904877346    1.2090466048
      9  H         3.2389636433    0.0003772613   -0.2956711256
     10  H         2.9062602541   -0.8896834917    1.2091407648
     11  C         0.3311396758   -1.5476320371   -0.7676794529
     12  H         0.8952691133   -1.5948736313   -1.7139191657
     13  H         0.5552231735   -2.4643247831   -0.1986248260
     14  H        -0.7415325282   -1.5514285263   -1.0169931080
     15  N        -3.0601485371    0.0000431416   -0.2976342101
     16  C        -2.8728298490   -0.0001836831    0.8403595043
     17  H        -2.6858724639   -0.0003880186    1.9037612104
   Point Group: c1    Number of degrees of freedom:    45


   Energy is   -502.938410911

 Hessian updated using BFGS update

 45 Hessian modes will be used to form the next step
  Hessian Eigenvalues:
     0.003211    0.003486    0.004906    0.006398    0.007794    0.016460
     0.017965    0.034113    0.034669    0.038319    0.044153    0.053528
     0.054492    0.056452    0.057244    0.061667    0.075713    0.082317
     0.106841    0.108140    0.110636    0.112631    0.114991    0.119242
     0.132104    0.147688    0.158959    0.160000    0.161064    0.173832
     0.176653    0.206618    0.210721    0.214649    0.311758    0.333853
     0.348709    0.348757    0.348908    0.349611    0.349674    0.349731
     0.349744    0.432789    1.316700

 Minimum search - taking simple RFO step
 Searching for Lamda that Minimizes Along All modes
 Value Taken    Lamda =  -0.00000278
 Step Taken.  Stepsize is  0.022089

                             Maximum     Tolerance    Cnvgd?
         Gradient           0.000222      0.000050      NO
         Displacement       0.009402      0.000050      NO
         Energy change     -0.000002      0.000000      NO


 New Cartesian Coordinates Obtained by Inverse Iteration

 Displacement from previous Coordinates is:  0.016368
 ----------------------------------------------------------------
             Standard Nuclear Orientation (Angstroms)
    I     Atom           X                Y                Z
 ----------------------------------------------------------------
    1      H       0.0247402951    -0.0000039998     1.4972400018
    2      Si      0.7897983112     0.0000301061     0.2015046547
    3      C       0.3310643925     1.5479480636    -0.7678716235
    4      H      -0.7412576484     1.5527191971    -1.0187697064
    5      H       0.5542651915     2.4639751718    -0.1973115689
    6      H       0.8960925729     1.5972619032    -1.7134596829
    7      C       2.6282681129     0.0003149651     0.6209758514
    8      H       2.9056947308     0.8903628078     1.2082941744
    9      H       3.2406242615     0.0003548024    -0.2958971025
   10      H       2.9059551552    -0.8895891227     1.2083890481
   11      C       0.3315155227    -1.5481460546    -0.7676760559
   12      H       0.8965655119    -1.5974164750    -1.7132541712
   13      H       0.5549914786    -2.4640365879    -0.1970032276
   14      H      -0.7408011805    -1.5532896033    -1.0185941749
   15      N      -3.0629123894    -0.0000157501    -0.2968179041
   16      C      -2.8759091281    -0.0002274831     0.8412046588
   17      H      -2.6884175905    -0.0004189886     1.9045125017
 ----------------------------------------------------------------
 Molecular Point Group                 C1    NOp =  1
 Largest Abelian Subgroup              C1    NOp =  1
 Nuclear Repulsion Energy =         273.49775269 hartrees
 There are       28 alpha and       28 beta electrons
 Applying Cartesian multipole field
    Component          Value
    ---------          -----
     (2,0,0)        1.00000E-11
     (0,2,0)        2.00000E-11
     (0,0,2)       -3.00000E-11
 Nucleus-field energy     =     0.0000000077 hartrees
 Requested basis set is def2-SVPD
 There are 94 shells and 212 basis functions
 A cutoff of  1.0D-14 yielded   4327 shell pairs
 There are     22103 function pairs (     24699 Cartesian)
 Smallest overlap matrix eigenvalue = 1.77E-04
 Read the previous MOs as SCF guess

 -----------------------------------------------------------------------
  General SCF calculation program by
  Eric Jon Sundstrom, Paul Horn, Yuezhi Mao, Dmitri Zuev, Alec White,
  David Stuck, Shaama M.S., Shane Yost, Joonho Lee, David Small,
  Daniel Levine, Susi Lehtola, Hugh Burton, Evgeny Epifanovsky,
  Bang C. Huynh
 -----------------------------------------------------------------------
 Exchange:     0.1670 Hartree-Fock + 1.0000 wB97X-V + LR-HF
 Correlation:  1.0000 wB97X-V
 Using Euler-Maclaurin-Lebedev (75,302) quadrature formula
 Nonlocal Correlation:  VV10 with C = 0.0100 and b = 6.00 and scale = 1.00000
 Grid used for NLC:  SG-1 standard quadrature
 A restricted SCF calculation will be
 performed using DIIS
 SCF converges when DIIS error is below 1.0e-09
 ---------------------------------------
  Cycle       Energy         DIIS error
 ---------------------------------------
    1    -502.9384092647      2.51e-05  
    2    -502.9384125560      3.83e-06  
    3    -502.9384127761      1.28e-06  
    4    -502.9384127898      1.21e-06  
    5    -502.9384127977      2.69e-07  
    6    -502.9384127982      5.19e-08  
    7    -502.9384127982      1.84e-08  
    8    -502.9384127982      3.88e-09  
    9    -502.9384127982      1.15e-09  
   10    -502.9384127982      3.22e-10  Convergence criterion met
 ---------------------------------------
 SCF time:   CPU 291.50s  wall 12.00s 
 SCF   energy in the final basis set =     -502.9384127982
 Total energy in the final basis set =     -502.9384127982
 
 --------------------------------------------------------------
 
                    Orbital Energies (a.u.)
 --------------------------------------------------------------
 
 Alpha MOs
 -- Occupied --
-66.1209 -14.4509 -10.3463 -10.2649 -10.2610 -10.2610  -5.3757  -3.7300
 -3.7291  -3.7290  -1.0484  -0.8378  -0.7984  -0.7961  -0.7204  -0.5926
 -0.5279  -0.5173  -0.5149  -0.4984  -0.4954  -0.4942  -0.4854  -0.4735
 -0.4731  -0.4093  -0.4026  -0.4021
 -- Virtual --
  0.0787   0.0869   0.0870   0.0952   0.1085   0.1092   0.1373   0.1452
  0.1596   0.1623   0.1710   0.1783   0.1901   0.1970   0.1996   0.2009
  0.2142   0.2197   0.2261   0.2273   0.2369   0.2389   0.2548   0.2835
  0.2967   0.2972   0.3026   0.3063   0.3136   0.3233   0.3300   0.3347
  0.3462   0.3519   0.3785   0.3787   0.3875   0.3945   0.3995   0.4057
  0.4118   0.4187   0.4273   0.4326   0.4416   0.4425   0.4438   0.4486
  0.4532   0.4617   0.4724   0.4757   0.4839   0.4897   0.4931   0.4991
  0.5024   0.5143   0.5157   0.5311   0.5418   0.5449   0.5458   0.5557
  0.5654   0.5667   0.5895   0.5978   0.6037   0.6078   0.6108   0.6200
  0.6275   0.6328   0.6420   0.6543   0.6788   0.6823   0.6834   0.6971
  0.7239   0.7292   0.7669   0.7774   0.7898   0.8033   0.8364   0.8366
  0.8687   0.8781   0.9160   0.9286   0.9400   0.9625   0.9757   1.0107
  1.0194   1.0248   1.0457   1.0481   1.0810   1.0910   1.0910   1.1031
  1.1050   1.1189   1.1262   1.1505   1.1821   1.1859   1.1878   1.2105
  1.2534   1.2559   1.2651   1.2768   1.2828   1.2993   1.3604   1.3782
  1.4028   1.4075   1.4212   1.4525   1.5057   1.6065   1.6684   1.6783
  1.7056   1.7103   1.7476   1.7649   1.7967   1.8009   1.8209   1.8239
  1.8387   1.9265   1.9358   1.9416   1.9695   2.0292   2.0325   2.0367
  2.0515   2.0669   2.0683   2.1009   2.1114   2.1203   2.1369   2.1551
  2.1561   2.1814   2.2144   2.2260   2.2453   2.2606   2.3096   2.3455
  2.4651   2.5039   2.5072   2.5935   2.5966   2.6207   2.6221   2.6271
  2.6371   2.6451   2.6554   2.9126   2.9157   2.9238   3.1218   3.1314
  3.1861   3.1962   3.2031   3.2287   3.2394   3.2588   3.3088   3.9204
 --------------------------------------------------------------
 
          Ground-State Mulliken Net Atomic Charges

     Atom                 Charge (a.u.)
  ----------------------------------------
      1 H                     0.334690
      2 Si                   -0.619158
      3 C                     0.188207
      4 H                    -0.141081
      5 H                    -0.009157
      6 H                     0.021029
      7 C                     0.175422
      8 H                    -0.022857
      9 H                    -0.024906
     10 H                    -0.022859
     11 C                     0.188070
     12 H                     0.020999
     13 H                    -0.009184
     14 H                    -0.140902
     15 N                    -0.094343
     16 C                     0.275972
     17 H                    -0.119944
  ----------------------------------------
  Sum of atomic charges =     0.000000

 -----------------------------------------------------------------
                    Cartesian Multipole Moments
 -----------------------------------------------------------------
    Charge (ESU x 10^10)
                -0.0000
    Dipole Moment (Debye)
         X       0.6872      Y      -0.0005      Z       2.2950
       Tot       2.3957
    Quadrupole Moments (Debye-Ang)
        XX     -50.3555     XY       0.0015     YY     -47.7311
        XZ      -8.6960     YZ      -0.0009     ZZ     -44.3705
    Octopole Moments (Debye-Ang^2)
       XXX       8.9051    XXY      -0.0050    XYY       1.3469
       YYY       0.0024    XXZ      22.0270    XYZ       0.0018
       YYZ       3.3121    XZZ      -8.8223    YZZ      -0.0020
       ZZZ       5.9760
    Hexadecapole Moments (Debye-Ang^3)
      XXXX   -1166.1458   XXXY      -0.0080   XXYY    -233.7263
      XYYY      -0.0139   YYYY    -325.8490   XXXZ     -77.2588
      XXYZ      -0.0073   XYYZ       2.3826   YYYZ       0.0033
      XXZZ    -186.3289   XYZZ       0.0005   YYZZ     -91.0386
      XZZZ     -32.4061   YZZZ      -0.0009   ZZZZ    -200.4303
 -----------------------------------------------------------------
 Calculating analytic gradient of the SCF energy
 Gradient of SCF Energy
            1           2           3           4           5           6
    1  -0.0000203   0.0000308   0.0000910  -0.0000250  -0.0000186  -0.0000651
    2   0.0000000  -0.0000003  -0.0000240  -0.0000070  -0.0000077   0.0000538
    3  -0.0000773   0.0001488  -0.0000016   0.0000113  -0.0000418  -0.0000016
            7           8           9          10          11          12
    1  -0.0001153   0.0000194   0.0000330   0.0000196   0.0000908  -0.0000650
    2   0.0000002  -0.0000251  -0.0000001   0.0000250   0.0000261  -0.0000543
    3   0.0000178  -0.0000174   0.0000369  -0.0000175  -0.0000003  -0.0000017
           13          14          15          16          17
    1  -0.0000185  -0.0000245  -0.0000969   0.0002277  -0.0000634
    2   0.0000073   0.0000054   0.0000007  -0.0000003   0.0000002
    3  -0.0000422   0.0000102  -0.0002183   0.0003795  -0.0001848
 Max gradient component =       3.795E-04
 RMS gradient           =       8.600E-05
 Gradient time:  CPU 197.43 s  wall 8.23 s
 Geometry Optimization Parameters
   NAtoms,    NIC,     NZ,  NCons,   NDum,   NFix, NCnnct, MaxDiis
       17     141       0       0       0       0       0       0

 Cartesian Hessian Update
 Hessian updated using BFGS update


** GEOMETRY OPTIMIZATION IN DELOCALIZED INTERNAL COORDINATES **
   Searching for a Minimum

   Optimization Cycle:   5

                       Coordinates (Angstroms)
     ATOM                X               Y               Z
      1  H         0.0247402951   -0.0000039998    1.4972400018
      2  Si        0.7897983112    0.0000301061    0.2015046547
      3  C         0.3310643925    1.5479480636   -0.7678716235
      4  H        -0.7412576484    1.5527191971   -1.0187697064
      5  H         0.5542651915    2.4639751718   -0.1973115689
      6  H         0.8960925729    1.5972619032   -1.7134596829
      7  C         2.6282681129    0.0003149651    0.6209758514
      8  H         2.9056947308    0.8903628078    1.2082941744
      9  H         3.2406242615    0.0003548024   -0.2958971025
     10  H         2.9059551552   -0.8895891227    1.2083890481
     11  C         0.3315155227   -1.5481460546   -0.7676760559
     12  H         0.8965655119   -1.5974164750   -1.7132541712
     13  H         0.5549914786   -2.4640365879   -0.1970032276
     14  H        -0.7408011805   -1.5532896033   -1.0185941749
     15  N        -3.0629123894   -0.0000157501   -0.2968179041
     16  C        -2.8759091281   -0.0002274831    0.8412046588
     17  H        -2.6884175905   -0.0004189886    1.9045125017
   Point Group: c1    Number of degrees of freedom:    45


   Energy is   -502.938412798

 Hessian updated using BFGS update

 44 Hessian modes will be used to form the next step
  Hessian Eigenvalues:
     0.002527    0.003211    0.004906    0.005473    0.007794    0.016460
     0.017978    0.034283    0.034669    0.039174    0.044153    0.053790
     0.054407    0.056452    0.057244    0.060549    0.075276    0.082318
     0.107093    0.108140    0.112631    0.114991    0.118410    0.122097
     0.128824    0.147689    0.159781    0.162125    0.175143    0.177367
     0.206618    0.208596    0.214266    0.311758    0.333976    0.348757
     0.348789    0.349060    0.349611    0.349676    0.349700    0.349731
     0.418892    1.290491

 Minimum search - taking simple RFO step
 Searching for Lamda that Minimizes Along All modes
 Value Taken    Lamda =  -0.00000140
 Step Taken.  Stepsize is  0.018230

                             Maximum     Tolerance    Cnvgd?
         Gradient           0.000230      0.000050      NO
         Displacement       0.008670      0.000050      NO
         Energy change     -0.000002      0.000000      NO


 New Cartesian Coordinates Obtained by Inverse Iteration

 Displacement from previous Coordinates is:  0.014431
 ----------------------------------------------------------------
             Standard Nuclear Orientation (Angstroms)
    I     Atom           X                Y                Z
 ----------------------------------------------------------------
    1      H       0.0261546898     0.0000324119     1.4977753973
    2      Si      0.7898290924     0.0000448029     0.2010680817
    3      C       0.3314083333     1.5483725630    -0.7675775138
    4      H      -0.7405250782     1.5539958809    -1.0200461504
    5      H       0.5541734476     2.4637160930    -0.1956528468
    6      H       0.8979349862     1.5985963934    -1.7122543027
    7      C       2.6285771700     0.0003073684     0.6196149129
    8      H       2.9058753396     0.8903540240     1.2070611541
    9      H       3.2409951475     0.0003361690    -0.2972034732
   10      H       2.9061100348    -0.8896003659     1.2071609686
   11      C       0.3318303663    -1.5485430378    -0.7673644957
   12      H       0.8983697186    -1.5987255800    -1.7120370784
   13      H       0.5548769728    -2.4637482688    -0.1953269854
   14      H      -0.7400997491    -1.5545379893    -1.0198420091
   15      N      -3.0652180076    -0.0000636868    -0.2964945426
   16      C      -2.8788419673    -0.0002652566     0.8415735472
   17      H      -2.6911728971    -0.0004485694     1.9050110093
 ----------------------------------------------------------------
 Molecular Point Group                 C1    NOp =  1
 Largest Abelian Subgroup              C1    NOp =  1
 Nuclear Repulsion Energy =         273.44752753 hartrees
 There are       28 alpha and       28 beta electrons
 Applying Cartesian multipole field
    Component          Value
    ---------          -----
     (2,0,0)        1.00000E-11
     (0,2,0)        2.00000E-11
     (0,0,2)       -3.00000E-11
 Nucleus-field energy     =     0.0000000077 hartrees
 Requested basis set is def2-SVPD
 There are 94 shells and 212 basis functions
 A cutoff of  1.0D-14 yielded   4327 shell pairs
 There are     22103 function pairs (     24699 Cartesian)
 Smallest overlap matrix eigenvalue = 1.77E-04
 Read the previous MOs as SCF guess

 -----------------------------------------------------------------------
  General SCF calculation program by
  Eric Jon Sundstrom, Paul Horn, Yuezhi Mao, Dmitri Zuev, Alec White,
  David Stuck, Shaama M.S., Shane Yost, Joonho Lee, David Small,
  Daniel Levine, Susi Lehtola, Hugh Burton, Evgeny Epifanovsky,
  Bang C. Huynh
 -----------------------------------------------------------------------
 Exchange:     0.1670 Hartree-Fock + 1.0000 wB97X-V + LR-HF
 Correlation:  1.0000 wB97X-V
 Using Euler-Maclaurin-Lebedev (75,302) quadrature formula
 Nonlocal Correlation:  VV10 with C = 0.0100 and b = 6.00 and scale = 1.00000
 Grid used for NLC:  SG-1 standard quadrature
 A restricted SCF calculation will be
 performed using DIIS
 SCF converges when DIIS error is below 1.0e-09
 ---------------------------------------
  Cycle       Energy         DIIS error
 ---------------------------------------
    1    -502.9384113329      2.07e-05  
    2    -502.9384135943      3.21e-06  
    3    -502.9384137493      1.14e-06  
    4    -502.9384137582      1.14e-06  
    5    -502.9384137652      1.85e-07  
    6    -502.9384137655      5.20e-08  
    7    -502.9384137655      1.58e-08  
    8    -502.9384137655      3.00e-09  
    9    -502.9384137655      8.80e-10  Convergence criterion met
 ---------------------------------------
 SCF time:   CPU 269.17s  wall 11.00s 
 SCF   energy in the final basis set =     -502.9384137655
 Total energy in the final basis set =     -502.9384137655
 
 --------------------------------------------------------------
 
                    Orbital Energies (a.u.)
 --------------------------------------------------------------
 
 Alpha MOs
 -- Occupied --
-66.1209 -14.4509 -10.3463 -10.2649 -10.2610 -10.2610  -5.3757  -3.7300
 -3.7291  -3.7290  -1.0484  -0.8378  -0.7983  -0.7961  -0.7204  -0.5925
 -0.5278  -0.5173  -0.5149  -0.4984  -0.4954  -0.4942  -0.4854  -0.4735
 -0.4731  -0.4093  -0.4026  -0.4021
 -- Virtual --
  0.0787   0.0869   0.0871   0.0952   0.1084   0.1092   0.1373   0.1452
  0.1596   0.1623   0.1710   0.1782   0.1901   0.1970   0.1996   0.2008
  0.2142   0.2197   0.2261   0.2272   0.2368   0.2389   0.2547   0.2834
  0.2967   0.2971   0.3026   0.3063   0.3136   0.3233   0.3300   0.3347
  0.3461   0.3520   0.3784   0.3786   0.3874   0.3946   0.3995   0.4055
  0.4118   0.4187   0.4273   0.4326   0.4415   0.4424   0.4438   0.4485
  0.4531   0.4617   0.4723   0.4756   0.4838   0.4897   0.4930   0.4990
  0.5026   0.5142   0.5158   0.5310   0.5417   0.5449   0.5458   0.5555
  0.5653   0.5666   0.5893   0.5978   0.6038   0.6077   0.6108   0.6199
  0.6276   0.6328   0.6421   0.6541   0.6785   0.6822   0.6832   0.6969
  0.7237   0.7292   0.7667   0.7771   0.7897   0.8029   0.8361   0.8364
  0.8687   0.8779   0.9160   0.9285   0.9398   0.9623   0.9756   1.0107
  1.0193   1.0249   1.0456   1.0479   1.0810   1.0908   1.0909   1.1031
  1.1049   1.1187   1.1259   1.1504   1.1819   1.1858   1.1880   1.2103
  1.2533   1.2557   1.2649   1.2769   1.2826   1.2992   1.3604   1.3781
  1.4029   1.4073   1.4212   1.4521   1.5056   1.6064   1.6682   1.6782
  1.7057   1.7104   1.7472   1.7650   1.7965   1.8010   1.8209   1.8240
  1.8386   1.9265   1.9360   1.9414   1.9690   2.0291   2.0325   2.0369
  2.0512   2.0668   2.0685   2.1006   2.1113   2.1202   2.1367   2.1551
  2.1559   2.1814   2.2144   2.2258   2.2450   2.2608   2.3093   2.3453
  2.4651   2.5040   2.5071   2.5933   2.5965   2.6207   2.6221   2.6272
  2.6370   2.6451   2.6554   2.9126   2.9156   2.9238   3.1217   3.1313
  3.1860   3.1961   3.2032   3.2286   3.2394   3.2587   3.3088   3.9202
 --------------------------------------------------------------
 
          Ground-State Mulliken Net Atomic Charges

     Atom                 Charge (a.u.)
  ----------------------------------------
      1 H                     0.334758
      2 Si                   -0.618155
      3 C                     0.187241
      4 H                    -0.141009
      5 H                    -0.008683
      6 H                     0.021127
      7 C                     0.175283
      8 H                    -0.022612
      9 H                    -0.025495
     10 H                    -0.022613
     11 C                     0.187129
     12 H                     0.021112
     13 H                    -0.008706
     14 H                    -0.140872
     15 N                    -0.094109
     16 C                     0.275351
     17 H                    -0.119747
  ----------------------------------------
  Sum of atomic charges =     0.000000

 -----------------------------------------------------------------
                    Cartesian Multipole Moments
 -----------------------------------------------------------------
    Charge (ESU x 10^10)
                -0.0000
    Dipole Moment (Debye)
         X       0.6851      Y      -0.0005      Z       2.2943
       Tot       2.3944
    Quadrupole Moments (Debye-Ang)
        XX     -50.3567     XY       0.0014     YY     -47.7297
        XZ      -8.7062     YZ      -0.0010     ZZ     -44.3681
    Octopole Moments (Debye-Ang^2)
       XXX       8.9473    XXY      -0.0044    XYY       1.3604
       YYY       0.0029    XXZ      22.0695    XYZ       0.0022
       YYZ       3.3147    XZZ      -8.8257    YZZ      -0.0020
       ZZZ       5.9940
    Hexadecapole Moments (Debye-Ang^3)
      XXXX   -1167.4615   XXXY      -0.0145   XXYY    -233.9495
      XYYY      -0.0195   YYYY    -326.0350   XXXZ     -77.3026
      XXYZ      -0.0076   XYYZ       2.4429   YYYZ       0.0048
      XXZZ    -186.4232   XYZZ      -0.0011   YYZZ     -91.0345
      XZZZ     -32.2815   YZZZ       0.0001   ZZZZ    -200.3228
 -----------------------------------------------------------------
 Calculating analytic gradient of the SCF energy
 Gradient of SCF Energy
            1           2           3           4           5           6
    1  -0.0000017   0.0000164   0.0000704  -0.0000160  -0.0000132  -0.0000478
    2   0.0000002  -0.0000003  -0.0000841   0.0000265   0.0000053   0.0000470
    3  -0.0000223   0.0000508   0.0000217  -0.0000060  -0.0000181  -0.0000068
            7           8           9          10          11          12
    1  -0.0000938   0.0000081   0.0000435   0.0000082   0.0000699  -0.0000477
    2   0.0000000  -0.0000088  -0.0000001   0.0000087   0.0000862  -0.0000472
    3  -0.0000291  -0.0000022   0.0000406  -0.0000022   0.0000232  -0.0000069
           13          14          15          16          17
    1  -0.0000131  -0.0000157  -0.0000626   0.0001196  -0.0000243
    2  -0.0000056  -0.0000282   0.0000005  -0.0000002   0.0000001
    3  -0.0000184  -0.0000071  -0.0000716   0.0001272  -0.0000726
 Max gradient component =       1.272E-04
 RMS gradient           =       4.424E-05
 Gradient time:  CPU 197.52 s  wall 8.23 s
 Geometry Optimization Parameters
   NAtoms,    NIC,     NZ,  NCons,   NDum,   NFix, NCnnct, MaxDiis
       17     141       0       0       0       0       0       0

 Cartesian Hessian Update
 Hessian updated using BFGS update


** GEOMETRY OPTIMIZATION IN DELOCALIZED INTERNAL COORDINATES **
   Searching for a Minimum

   Optimization Cycle:   6

                       Coordinates (Angstroms)
     ATOM                X               Y               Z
      1  H         0.0261546898    0.0000324119    1.4977753973
      2  Si        0.7898290924    0.0000448029    0.2010680817
      3  C         0.3314083333    1.5483725630   -0.7675775138
      4  H        -0.7405250782    1.5539958809   -1.0200461504
      5  H         0.5541734476    2.4637160930   -0.1956528468
      6  H         0.8979349862    1.5985963934   -1.7122543027
      7  C         2.6285771700    0.0003073684    0.6196149129
      8  H         2.9058753396    0.8903540240    1.2070611541
      9  H         3.2409951475    0.0003361690   -0.2972034732
     10  H         2.9061100348   -0.8896003659    1.2071609686
     11  C         0.3318303663   -1.5485430378   -0.7673644957
     12  H         0.8983697186   -1.5987255800   -1.7120370784
     13  H         0.5548769728   -2.4637482688   -0.1953269854
     14  H        -0.7400997491   -1.5545379893   -1.0198420091
     15  N        -3.0652180076   -0.0000636868   -0.2964945426
     16  C        -2.8788419673   -0.0002652566    0.8415735472
     17  H        -2.6911728971   -0.0004485694    1.9050110093
   Point Group: c1    Number of degrees of freedom:    45


   Energy is   -502.938413765

 Hessian updated using BFGS update

 45 Hessian modes will be used to form the next step
  Hessian Eigenvalues:
     0.001993    0.003211    0.004906    0.005435    0.007794    0.016460
     0.017952    0.034627    0.034669    0.038668    0.044153    0.053828
     0.055140    0.056452    0.057243    0.059021    0.074595    0.082317
     0.106787    0.108140    0.110291    0.112631    0.114991    0.119710
     0.128936    0.147688    0.158543    0.160000    0.160808    0.166726
     0.176232    0.206618    0.209438    0.212654    0.311758    0.333622
     0.348756    0.348770    0.348854    0.349611    0.349676    0.349731
     0.349763    0.408318    1.278362

 Minimum search - taking simple RFO step
 Searching for Lamda that Minimizes Along All modes
 Value Taken    Lamda =  -0.00000072
 Step Taken.  Stepsize is  0.012553

                             Maximum     Tolerance    Cnvgd?
         Gradient           0.000093      0.000050      NO
         Displacement       0.006617      0.000050      NO
         Energy change     -0.000001      0.000000      NO


 New Cartesian Coordinates Obtained by Inverse Iteration

 Displacement from previous Coordinates is:  0.011690
 ----------------------------------------------------------------
             Standard Nuclear Orientation (Angstroms)
    I     Atom           X                Y                Z
[...]
 Frequency:       765.92                 839.49                 841.20
 Force Cnst:      0.4650                 0.5920                 0.5968
 Red. Mass:       1.3454                 1.4258                 1.4315
 IR Active:          YES                    YES                    YES
 IR Intens:       30.250                 19.227                 20.334
 Raman Active:       YES                    YES                    YES
               X      Y      Z        X      Y      Z        X      Y      Z
 H          0.000  0.011 -0.000    0.000  0.315 -0.000   -0.273  0.000 -0.165
 Si         0.000 -0.000 -0.000    0.000  0.063 -0.000   -0.053  0.000 -0.035
 C          0.001 -0.001  0.002   -0.072 -0.039  0.034    0.057  0.043  0.081
 H          0.001 -0.005 -0.000   -0.013  0.240 -0.174    0.048 -0.346  0.068
 H         -0.001  0.003 -0.003    0.151 -0.102  0.044   -0.163  0.297 -0.261
 H         -0.000 -0.005  0.001    0.176 -0.222  0.166   -0.054 -0.232  0.002
 C          0.000  0.002  0.000   -0.000 -0.113  0.000    0.050 -0.000 -0.054
 H          0.009 -0.002  0.003   -0.402  0.108 -0.122   -0.087 -0.023  0.055
 H         -0.000 -0.004 -0.000   -0.000  0.172 -0.000    0.310  0.000  0.119
 H         -0.009 -0.002 -0.003    0.402  0.108  0.122   -0.087  0.023  0.055
 C         -0.001 -0.001 -0.002    0.072 -0.039 -0.034    0.057 -0.043  0.081
 H          0.000 -0.005 -0.001   -0.176 -0.222 -0.166   -0.054  0.232  0.002
 H          0.001  0.003  0.003   -0.151 -0.102 -0.044   -0.163 -0.297 -0.261
 H         -0.001 -0.005  0.000    0.013  0.240  0.174    0.048  0.346  0.068
 N          0.000  0.066 -0.000    0.000 -0.000 -0.000   -0.000 -0.000 -0.000
 C         -0.000 -0.160  0.000   -0.000 -0.001  0.000    0.000 -0.000 -0.000
 H          0.000  0.985 -0.000   -0.000  0.007 -0.000    0.008  0.000 -0.002
 TransDip   0.000  0.176 -0.000    0.000  0.140 -0.000   -0.120  0.000 -0.080

 Mode:                22                     23                     24
 Frequency:       861.17                 914.76                 919.58
 Force Cnst:      0.6882                 0.6538                 0.6490
 Red. Mass:       1.5751                 1.3261                 1.3026
 IR Active:          YES                    YES                    YES
 IR Intens:       62.549                162.668                157.828
 Raman Active:       YES                    YES                    YES
               X      Y      Z        X      Y      Z        X      Y      Z
 H         -0.052  0.000  0.056    0.000  0.807 -0.000    0.706 -0.000  0.416
 Si        -0.048  0.000  0.078   -0.000 -0.083  0.000   -0.068  0.000 -0.041
 C          0.062 -0.016 -0.078   -0.022  0.043  0.048    0.057  0.005 -0.001
 H         -0.013 -0.101  0.224    0.012  0.014 -0.125    0.021 -0.208  0.124
 H         -0.080 -0.130  0.177   -0.033  0.187 -0.185   -0.098  0.038 -0.001
 H         -0.162  0.378 -0.176    0.030 -0.188  0.058   -0.098  0.056 -0.083
 C          0.036 -0.000 -0.097    0.000  0.052  0.000    0.001 -0.000  0.071
 H         -0.214 -0.043  0.102    0.165 -0.051  0.065    0.196  0.017 -0.049
 H          0.420  0.000  0.168   -0.000 -0.093 -0.000   -0.207  0.000 -0.075
 H         -0.214  0.043  0.102   -0.165 -0.051 -0.065    0.196 -0.017 -0.049
 C          0.062  0.016 -0.078    0.022  0.043 -0.048    0.057 -0.005 -0.001
 H         -0.162 -0.378 -0.176   -0.030 -0.188 -0.058   -0.098 -0.056 -0.083
 H         -0.080  0.130  0.177    0.033  0.187  0.185   -0.098 -0.038 -0.001
 H         -0.013  0.101  0.224   -0.012  0.014  0.125    0.021  0.208  0.124
 N          0.002 -0.000 -0.001   -0.000  0.000 -0.000   -0.001 -0.000 -0.001
 C         -0.005  0.000  0.001    0.000  0.001 -0.000   -0.000 -0.000 -0.000
 H          0.046 -0.000 -0.010   -0.000 -0.018  0.000   -0.003  0.000  0.001
 TransDip  -0.128  0.000  0.219   -0.000 -0.408  0.000   -0.344  0.000 -0.208

 Mode:                25                     26                     27
 Frequency:      1270.55                1272.74                1279.38
 Force Cnst:      1.2212                 1.2257                 1.2049
 Red. Mass:       1.2840                 1.2842                 1.2494
 IR Active:          YES                    YES                    YES
 IR Intens:       41.766                 43.727                  8.609
 Raman Active:       YES                    YES                    YES
               X      Y      Z        X      Y      Z        X      Y      Z
 H          0.015 -0.000  0.011   -0.000 -0.020 -0.000   -0.010 -0.000  0.013
 Si        -0.014  0.000 -0.007    0.000  0.016  0.000   -0.000  0.000  0.005
 C          0.015 -0.039  0.026    0.026 -0.092  0.055   -0.022  0.077 -0.050
 H          0.037  0.150 -0.083    0.075  0.357 -0.179   -0.069 -0.314  0.172
 H         -0.071  0.088 -0.135   -0.141  0.193 -0.318    0.123 -0.179  0.287
 H         -0.096  0.145 -0.034   -0.190  0.353 -0.059    0.177 -0.312  0.056
 C          0.137 -0.000  0.031   -0.000 -0.004 -0.000    0.063 -0.000  0.012
 H         -0.472  0.192  0.011   -0.002  0.003 -0.009   -0.234  0.089  0.010
 H         -0.413 -0.000 -0.314    0.000  0.017  0.000   -0.200 -0.000 -0.154
 H         -0.472 -0.192  0.011    0.002  0.003  0.009   -0.234 -0.089  0.010
 C          0.015  0.039  0.026   -0.026 -0.092 -0.055   -0.022 -0.077 -0.050
 H         -0.096 -0.145 -0.034    0.190  0.353  0.059    0.177  0.312  0.056
 H         -0.071 -0.088 -0.135    0.141  0.193  0.318    0.123  0.179  0.287
 H          0.037 -0.150 -0.082   -0.075  0.357  0.179   -0.069  0.314  0.172
 N          0.000  0.000  0.000    0.000  0.000  0.000   -0.000 -0.000 -0.000
 C         -0.000 -0.000  0.000   -0.000 -0.000  0.000    0.000  0.000 -0.000
 H         -0.001 -0.000  0.000   -0.000 -0.001  0.000    0.002  0.000 -0.000
 TransDip  -0.184  0.000 -0.094    0.000  0.212 -0.000   -0.017  0.000  0.092

 Mode:                28                     29                     30
 Frequency:      1424.62                1428.42                1428.60
 Force Cnst:      1.2569                 1.2616                 1.2622
 Red. Mass:       1.0511                 1.0495                 1.0497
 IR Active:          YES                    YES                    YES
 IR Intens:        0.009                  0.043                  0.152
 Raman Active:       YES                    YES                    YES
               X      Y      Z        X      Y      Z        X      Y      Z
 H          0.000  0.004 -0.000    0.000 -0.003  0.000    0.012  0.000  0.007
 Si        -0.000 -0.000 -0.000   -0.000 -0.002 -0.000   -0.000  0.000 -0.001
 C          0.036  0.014  0.005   -0.021  0.011  0.025   -0.006  0.012  0.021
 H          0.064  0.173 -0.147    0.041 -0.266 -0.258    0.050 -0.148 -0.245
 H         -0.289 -0.065  0.259    0.357 -0.041 -0.057    0.188 -0.053  0.033
 H         -0.263 -0.291 -0.179   -0.106  0.169 -0.025   -0.161  0.044 -0.073
 C         -0.000 -0.029  0.000    0.000 -0.037 -0.000    0.010  0.000 -0.050
 H          0.156  0.024 -0.147    0.217  0.032 -0.197    0.046 -0.323  0.435
 H          0.000  0.330 -0.000   -0.000  0.445 -0.000   -0.231 -0.000 -0.194
 H         -0.156  0.024  0.147   -0.217  0.032  0.197    0.046  0.323  0.435
 C         -0.036  0.014 -0.005    0.021  0.011 -0.025   -0.006 -0.012  0.021
 H          0.263 -0.291  0.179    0.106  0.169  0.025   -0.161 -0.044 -0.073
 H          0.289 -0.065 -0.259   -0.357 -0.041  0.057    0.189  0.053  0.033
 H         -0.064  0.173  0.147   -0.041 -0.266  0.258    0.050  0.148 -0.245
 N          0.000  0.000 -0.000   -0.000  0.000  0.000   -0.000 -0.000  0.000
 C         -0.000 -0.000 -0.000   -0.000  0.000 -0.000   -0.000 -0.000 -0.000
 H          0.000  0.000 -0.000   -0.000 -0.002  0.000   -0.000  0.000 -0.000
 TransDip   0.000  0.003  0.000    0.000  0.007  0.000    0.006 -0.000  0.011

 Mode:                31                     32                     33
 Frequency:      1436.98                1438.44                1445.52
 Force Cnst:      1.2718                 1.2761                 1.2853
 Red. Mass:       1.0453                 1.0468                 1.0440
 IR Active:          YES                    YES                    YES
 IR Intens:        3.459                  3.319                 10.346
 Raman Active:       YES                    YES                    YES
               X      Y      Z        X      Y      Z        X      Y      Z
 H          0.024 -0.000  0.015    0.000  0.031  0.000   -0.006  0.000  0.004
 Si        -0.007  0.000 -0.003   -0.000 -0.007 -0.000   -0.004  0.000  0.008
 C         -0.035 -0.017 -0.009   -0.005 -0.016 -0.027   -0.015  0.014  0.026
 H         -0.079 -0.165  0.216   -0.083  0.117  0.349    0.057 -0.263 -0.315
 H          0.272  0.089 -0.297   -0.135  0.086 -0.124    0.342 -0.067 -0.002
 H          0.316  0.312  0.208    0.284  0.032  0.148   -0.176  0.139 -0.069
 C          0.004  0.000 -0.006    0.000 -0.037  0.000   -0.005  0.000  0.030
 H         -0.001 -0.042  0.061    0.236  0.033 -0.209   -0.038  0.214 -0.286
 H         -0.038 -0.000 -0.033   -0.000  0.470 -0.000    0.162  0.000  0.132
 H         -0.000  0.042  0.061   -0.236  0.033  0.209   -0.038 -0.214 -0.286
 C         -0.035  0.017 -0.009    0.005 -0.016  0.027   -0.015 -0.014  0.026
 H          0.316 -0.312  0.208   -0.284  0.032 -0.148   -0.176 -0.139 -0.069
 H          0.272 -0.089 -0.297    0.135  0.086  0.124    0.342  0.067 -0.002
 H         -0.079  0.165  0.216    0.083  0.117 -0.349    0.057  0.263 -0.315
 N         -0.000 -0.000 -0.000   -0.000 -0.000 -0.000   -0.000 -0.000  0.000
 C          0.000  0.000  0.000    0.000  0.000 -0.000   -0.000 -0.000 -0.000
 H          0.001 -0.000  0.000    0.000  0.001 -0.000    0.000 -0.000 -0.000
 TransDip   0.058 -0.000  0.015    0.000  0.058  0.000    0.045 -0.000 -0.092

 Mode:                34                     35                     36
 Frequency:      2186.54                2260.13                3046.43
 Force Cnst:      2.9276                14.6438                 5.6705
 Red. Mass:       1.0393                 4.8656                 1.0370
 IR Active:          YES                    YES                    YES
 IR Intens:      162.272                  3.438                  4.514
 Raman Active:       YES                    YES                    YES
               X      Y      Z        X      Y      Z        X      Y      Z
 H         -0.509  0.000  0.860    0.008 -0.000 -0.009    0.002 -0.000 -0.000
 Si         0.017 -0.000 -0.029   -0.000  0.000  0.000   -0.001 -0.000 -0.000
 C          0.001 -0.000 -0.001    0.000  0.000 -0.000   -0.001  0.002 -0.001
 H          0.003  0.002 -0.000   -0.001 -0.001  0.002    0.026 -0.001  0.006
 H         -0.001 -0.002 -0.003   -0.000  0.000 -0.000   -0.005 -0.020 -0.013
 H         -0.001  0.007 -0.005    0.001  0.000  0.001   -0.013 -0.001  0.023
 C          0.000 -0.000 -0.001    0.000 -0.000  0.000    0.051  0.000  0.008
 H          0.001 -0.003 -0.002    0.000 -0.000 -0.000   -0.132 -0.457 -0.298
 H          0.009  0.000  0.000   -0.000 -0.000  0.000   -0.320  0.000  0.510
 H          0.001  0.003 -0.002    0.000  0.000 -0.000   -0.132  0.457 -0.298
 C          0.001  0.000 -0.001    0.000 -0.000 -0.000   -0.001 -0.002 -0.001
 H         -0.001 -0.007 -0.005    0.001 -0.000  0.001   -0.013  0.001  0.023
 H         -0.001  0.002 -0.003   -0.000 -0.000 -0.000   -0.005  0.020 -0.013
 H          0.003 -0.002 -0.000   -0.001  0.001  0.002    0.026  0.001  0.006
 N          0.000  0.000  0.001    0.077  0.000  0.394   -0.000 -0.000 -0.000
 C          0.000 -0.000 -0.001   -0.076 -0.000 -0.393   -0.000  0.000  0.000
 H         -0.002 -0.000 -0.002   -0.163 -0.000 -0.807   -0.000 -0.000 -0.000
 TransDip   0.205 -0.000 -0.353   -0.014 -0.000 -0.058    0.068  0.000  0.003

 Mode:                37                     38                     39
 Frequency:      3047.75                3048.03                3137.14
 Force Cnst:      5.6760                 5.6774                 6.3878
 Red. Mass:       1.0371                 1.0372                 1.1016
 IR Active:          YES                    YES                    YES
 IR Intens:        3.258                  5.895                  0.762
 Raman Active:       YES                    YES                    YES
               X      Y      Z        X      Y      Z        X      Y      Z
 H         -0.001  0.000 -0.001   -0.000 -0.001 -0.000   -0.001  0.000 -0.002
 Si         0.001 -0.000  0.001    0.000  0.001  0.000   -0.000  0.000  0.000
 C         -0.005  0.030 -0.020    0.005 -0.030  0.020   -0.015  0.022  0.040
 H          0.364  0.003  0.075   -0.366 -0.002 -0.076    0.065  0.003  0.022
 H         -0.091 -0.340 -0.219    0.090  0.335  0.218   -0.077 -0.286 -0.173
 H         -0.220 -0.011  0.373    0.222  0.011 -0.375    0.193  0.020 -0.330
 C         -0.003 -0.000 -0.000   -0.000  0.000 -0.000    0.012 -0.000 -0.062
 H          0.007  0.028  0.018   -0.002 -0.003 -0.002    0.078  0.238  0.146
 H          0.021 -0.000 -0.034    0.000  0.000 -0.000   -0.297  0.000  0.447
 H          0.007 -0.028  0.018    0.002 -0.004  0.002    0.078 -0.238  0.145
 C         -0.005 -0.030 -0.020   -0.005 -0.030 -0.020   -0.015 -0.022  0.040
 H         -0.220  0.011  0.372   -0.222  0.011  0.376    0.192 -0.020 -0.329
 H         -0.090  0.339 -0.219   -0.090  0.336 -0.219   -0.077  0.285 -0.172
 H          0.363 -0.003  0.075    0.367 -0.002  0.076    0.065 -0.003  0.022
 N         -0.000 -0.000  0.000   -0.000  0.000  0.000   -0.000 -0.000  0.000
 C         -0.000 -0.000  0.000   -0.000  0.000  0.000   -0.000 -0.000 -0.000
 H          0.000  0.000 -0.000    0.000 -0.000 -0.000    0.000  0.000  0.000
 TransDip  -0.011  0.000 -0.057   -0.000 -0.078 -0.000   -0.022  0.000  0.018

 Mode:                40                     41                     42
 Frequency:      3137.23                3138.84                3142.42
 Force Cnst:      6.3872                 6.3910                 6.4095
 Red. Mass:       1.1015                 1.1010                 1.1016
 IR Active:          YES                    YES                    YES
 IR Intens:        3.028                 25.139                 10.383
 Raman Active:       YES                    YES                    YES
               X      Y      Z        X      Y      Z        X      Y      Z
 H          0.000  0.001  0.000   -0.004  0.000  0.007   -0.000  0.001 -0.000
 Si         0.000  0.000 -0.000    0.000 -0.000 -0.001    0.000 -0.001  0.000
 C         -0.023  0.029  0.054    0.014 -0.020 -0.037    0.004 -0.002 -0.004
 H          0.114  0.003  0.035   -0.064 -0.002 -0.021   -0.028  0.000 -0.007
 H         -0.102 -0.376 -0.226    0.070  0.260  0.156    0.007  0.027  0.016
 H          0.263  0.027 -0.452   -0.179 -0.020  0.307   -0.023 -0.002  0.040
 C         -0.000 -0.008  0.000    0.013 -0.000 -0.067   -0.000 -0.092  0.000
 H          0.015  0.047  0.032    0.085  0.257  0.158    0.184  0.561  0.379
 H          0.000 -0.002 -0.001   -0.323  0.000  0.484   -0.000 -0.016  0.000
 H         -0.015  0.048 -0.033    0.085 -0.257  0.158   -0.184  0.561 -0.379
 C          0.023  0.029 -0.054    0.014  0.020 -0.037   -0.004 -0.002  0.004
 H         -0.264  0.027  0.452   -0.179  0.020  0.307    0.023 -0.002 -0.040
 H          0.102 -0.377  0.227    0.070 -0.260  0.156   -0.007  0.027 -0.016
 H         -0.114  0.003 -0.035   -0.064  0.002 -0.021    0.028  0.000  0.007
 N          0.000 -0.000 -0.000    0.000 -0.000 -0.000   -0.000  0.000  0.000
 C          0.000  0.000  0.000   -0.000  0.000 -0.000    0.000 -0.000 -0.000
 H         -0.000  0.000 -0.000   -0.000  0.000  0.000   -0.000 -0.000  0.000
 TransDip   0.000  0.056 -0.000    0.046  0.000 -0.154    0.000 -0.103  0.000

 Mode:                43                     44                     45
 Frequency:      3148.33                3148.96                3459.86
 Force Cnst:      6.4350                 6.4356                 8.4929
 Red. Mass:       1.1019                 1.1016                 1.2042
 IR Active:          YES                    YES                    YES
 IR Intens:        2.216                 15.095                 74.379
 Raman Active:       YES                    YES                    YES
               X      Y      Z        X      Y      Z        X      Y      Z
 H          0.000  0.001 -0.000    0.002 -0.000 -0.001   -0.001  0.000  0.000
 Si        -0.000 -0.000 -0.000   -0.001  0.000 -0.000    0.000  0.000  0.000
 C         -0.060 -0.024 -0.013   -0.060 -0.022 -0.011    0.000  0.000 -0.000
 H          0.573 -0.012  0.126    0.577 -0.013  0.127   -0.000  0.000 -0.000
 H          0.068  0.294  0.182    0.063  0.277  0.172   -0.000 -0.000 -0.000
 H          0.076  0.003 -0.150    0.085  0.004 -0.166   -0.000  0.000  0.000
 C          0.000 -0.002 -0.000    0.000  0.000 -0.001   -0.000  0.000  0.000
 H          0.005  0.015  0.010    0.002  0.005  0.004   -0.000 -0.000 -0.000
 H         -0.000 -0.001  0.000   -0.000  0.000  0.002    0.000 -0.000 -0.000
 H         -0.005  0.015 -0.010    0.002 -0.005  0.004   -0.000  0.000 -0.000
 C          0.059 -0.023  0.013   -0.060  0.022 -0.011    0.000 -0.000 -0.000
 H         -0.076  0.003  0.150    0.085 -0.004 -0.166   -0.000 -0.000  0.000
 H         -0.067  0.293 -0.182    0.064 -0.278  0.172   -0.000  0.000 -0.000
 H         -0.571 -0.012 -0.126    0.579  0.013  0.128   -0.000 -0.000 -0.000
 N         -0.000 -0.000  0.000   -0.000  0.000  0.000    0.007  0.000  0.037
 C         -0.000 -0.000 -0.000   -0.000  0.000 -0.000   -0.025 -0.000 -0.125
 H          0.000  0.000  0.000    0.000 -0.000  0.000    0.198  0.000  0.971
 TransDip  -0.000 -0.048 -0.000   -0.122  0.000 -0.024    0.054  0.000  0.271

 STANDARD THERMODYNAMIC QUANTITIES AT   298.15 K  AND     1.00 ATM

   This Molecule has  0 Imaginary Frequencies
   Zero point vibrational energy:       85.057 kcal/mol

   Atom    1 Element H  Has Mass    1.00783
   Atom    2 Element Si Has Mass   27.97693
   Atom    3 Element C  Has Mass   12.00000
   Atom    4 Element H  Has Mass    1.00783
   Atom    5 Element H  Has Mass    1.00783
   Atom    6 Element H  Has Mass    1.00783
   Atom    7 Element C  Has Mass   12.00000
   Atom    8 Element H  Has Mass    1.00783
   Atom    9 Element H  Has Mass    1.00783
   Atom   10 Element H  Has Mass    1.00783
   Atom   11 Element C  Has Mass   12.00000
   Atom   12 Element H  Has Mass    1.00783
   Atom   13 Element H  Has Mass    1.00783
   Atom   14 Element H  Has Mass    1.00783
   Atom   15 Element N  Has Mass   14.00307
   Atom   16 Element C  Has Mass   12.00000
   Atom   17 Element H  Has Mass    1.00783
   Molecular Mass:   101.066130 amu
   Principal axes and moments of inertia in amu*Bohr^2:
                             1           2           3
    Eigenvalues --      453.90558  1618.07840  1745.79395
          X               1.00000    -0.00000    -0.00308
          Y               0.00000     1.00000     0.00000
          Z               0.00308    -0.00000     1.00000
   Rotational Symmetry Number is   1
   The Molecule is an Asymmetric Top
   Translational Enthalpy:        0.889 kcal/mol
   Rotational Enthalpy:           0.889 kcal/mol
   Vibrational Enthalpy:         90.775 kcal/mol
   gas constant (RT):             0.592 kcal/mol
   Translational Entropy:        39.749  cal/mol.K
   Rotational Entropy:           28.640  cal/mol.K
   Vibrational Entropy:          42.795  cal/mol.K

   Total Enthalpy:               93.145 kcal/mol
   Total Entropy:               111.185  cal/mol.K
 Total job time:  4661.24s(wall), 12933.98s(cpu) 
 Sat Nov 18 16:03:16 2023

        *************************************************************
        *                                                           *
        *  Thank you very much for using Q-Chem.  Have a nice day.  *
        *                                                           *
        *************************************************************


