
Running Job 1 of 2 monomer_redo.in
qchem monomer_redo.in_1531965.0 /data/scratch/monomer_redo20240605150128/ 1
/opt/qchem/6.1/exe/qcprog.exe_s monomer_redo.in_1531965.0 /data/scratch/monomer_redo20240605150128/
                  Welcome to Q-Chem
     A Quantum Leap Into The Future Of Chemistry


 Q-Chem 6.1, Q-Chem, Inc., Pleasanton, CA (2023)

 E. Epifanovsky,  A. T. B. Gilbert,  Xintian Feng,  Joonho Lee,  Yuezhi Mao,  
 N. Mardirossian,  P. Pokhilko,  A. White,  M. Wormit,  M. P. Coons,  
 A. L. Dempwolff,  Zhengting Gan,  D. Hait,  P. R. Horn,  L. D. Jacobson,  
 I. Kaliman,  J. Kussmann,  A. W. Lange,  Ka Un Lao,  D. S. Levine,  Jie Liu,  
 S. C. McKenzie,  A. F. Morrison,  K. D. Nanda,  F. Plasser,  D. R. Rehn,  
 M. L. Vidal,  Zhi-Qiang You,  Ying Zhu,  B. Alam,  B. Albrecht,  
 A. Aldossary,  E. Alguire,  J. H. Andersen,  V. Athavale,  D. Barton,  
 K. Begam,  A. Behn,  N. Bellonzi,  Y. A. Bernard,  E. J. Berquist,  
 H. Burton,  A. Carreras,  K. Carter-Fenk,  Mathew Chow,  Romit Chakraborty,  
 Chandrima Chakravarty,  Junhan Chen,  A. D. Chien,  K. D. Closser,  
 V. Cofer-Shabica,  L. Cunha,  S. Dasgupta,  Jia Deng,  M. de Wergifosse,  
 M. Diedenhofen,  Hainam Do,  S. Ehlert,  Po-Tung Fang,  S. Fatehi,  
 Qingguo Feng,  T. Friedhoff,  Thomas Froitzheim,  B. Ganoe,  J. Gayvert,  
 Qinghui Ge,  G. Gidofalvi,  M. Gimferrer,  M. Goldey,  Montgomery Gray,  
 J. Gomes,  C. Gonzalez-Espinoza,  S. Gulania,  A. Gunina,  J. A. Gyamfi,  
 M. W. D. Hanson-Heine,  P. H. P. Harbach,  A. W. Hauser,  M. F. Herbst,  
 M. Hernandez Vera,  M. Hodecker,  Z. C. Holden,  S. Houck,  Xunkun Huang,  
 Kerwin Hui,  B. C. Huynh,  K. Ikeda,  M. Ivanov,  Hyunjun Ji,  Zuxin Jin,  
 Hanjie Jiang,  Subrata Jana,  B. Kaduk,  S. Kaehler,  R. Kang,  
 K. Khistyaev,  Jaehoon Kim,  Yongbin Kim,  P. Klunzinger,  Z. Koczor-Benda,  
 Joong Hoon Koh,  D. Kosenkov,  Saikiran Kotaru,  L. Koulias,  T. Kowalczyk,  
 C. M. Krauter,  K. Kue,  A. Kunitsa,  T. Kus,  A. Landau,  K. V. Lawler,  
 D. Lefrancois,  S. Lehtola,  Rain Li,  Shaozhi Li,  Yi-Pei Li,  
 Jiashu Liang,  M. Liebenthal,  Hung-Hsuan Lin,  You-Sheng Lin,  Fenglai Liu,  
 Kuan-Yu Liu,  Xiao Liu,  M. Loipersberger,  A. Luenser,  C. Malbon,  
 A. Manjanath,  P. Manohar,  E. Mansoor,  S. F. Manzer,  Shan-Ping Mao,  
 A. V. Marenich,  T. Markovich,  S. Mason,  F. Matz,  S. A. Maurer,  
 P. F. McLaughlin,  M. F. S. J. Menger,  J.-M. Mewes,  S. A. Mewes,  
 P. Morgante,  Mohammad Mostafanejad,  J. W. Mullinax,  K. J. Oosterbaan,  
 G. Paran,  V. Parravicini,  Alexander C. Paul,  Suranjan K. Paul,  
 F. Pavosevic,  Zheng Pei,  S. Prager,  E. I. Proynov,  E. Ramos,  B. Rana,  
 A. E. Rask,  A. Rettig,  R. M. Richard,  F. Rob,  E. Rossomme,  T. Scheele,  
 M. Scheurer,  M. Schneider,  P. E. Schneider,  Tim K. Schramm,  N. Sergueev,  
 S. M. Sharada,  M. Sharma,  Hengyuan Shen,  W. Skomorowski,  D. W. Small,  
 C. J. Stein,  Alistair J. Sterling,  Yingli Su,  Yu-Chuan Su,  
 E. J. Sundstrom,  J. Talbot,  Zhen Tao,  J. Thirman,  Hung-Yi Tsai,  
 T. Tsuchimochi,  N. M. Tubman,  C. Utku,  S. P. Veccham,  O. Vydrov,  
 J. Wenzel,  Jonathan Wong,  J. Witte,  A. Yamada,  Chou-Hsun Yang,  Kun Yao,  
 S. Yeganeh,  S. R. Yost,  A. Zech,  F. Zeller,  Igor Ying Zhang,  
 Xing Zhang,  Yu Zhang,  D. Zuev,  A. Aspuru-Guzik,  A. T. Bell,  
 N. A. Besley,  K. B. Bravaya,  B. R. Brooks,  D. Casanova,  Jeng-Da Chai,  
 Hsing-Ta Chen,  S. Coriani,  C. J. Cramer,  A. E. DePrince, III,  
 R. A. DiStasio Jr.,  A. Dreuw,  B. D. Dunietz,  T. R. Furlani,  
 W. A. Goddard III,  S. Grimme,  S. Hammes-Schiffer,  T. Head-Gordon,  
 W. J. Hehre,  Chao-Ping Hsu,  T.-C. Jagau,  Yousung Jung,  A. Klamt,  
 Jing Kong,  D. S. Lambrecht,  Xiangyuan Li,  WanZhen Liang,  N. J. Mayhall,  
 C. W. McCurdy,  J. B. Neaton,  T. Neudecker,  C. Ochsenfeld,  
 J. A. Parkhill,  R. Peverati,  V. A. Rassolov,  Haisheng Ren,  Yihan Shao,  
 L. V. Slipchenko,  R. P. Steele,  J. E. Subotnik,  A. J. W. Thom,  
 A. Tkatchenko,  D. G. Truhlar,  T. Van Voorhis,  Fan Wang,  
 T. A. Wesolowski,  K. B. Whaley,  H. L. Woodcock III,  P. M. Zimmerman,  
 S. Faraji,  P. M. W. Gill,  M. Head-Gordon,  J. M. Herbert,  A. I. Krylov

 Contributors to earlier versions of Q-Chem not listed above: 
 R. D. Adamson,  B. Austin,  R. Baer,  J. Baker,  G. J. O. Beran,  
 K. Brandhorst,  S. T. Brown,  E. F. C. Byrd,  Arup K. Chakraborty,  
 G. K. L. Chan,  Chun-Min Chang,  Yunqing Chen,  C.-L. Cheng,  
 Siu Hung Chien,  D. M. Chipman,  D. L. Crittenden,  H. Dachsel,  
 R. J. Doerksen,  A. D. Dutoi,  R. G. Edgar,  J. Fosso-Tande,  
 L. Fusti-Molnar,  D. Ghosh,  A. Ghysels,  A. Golubeva-Zadorozhnaya,  
 J. Gonthier,  M. S. Gordon,  S. R. Gwaltney,  G. Hawkins,  J. E. Herr,  
 A. Heyden,  S. Hirata,  E. G. Hohenstein,  G. Kedziora,  F. J. Keil,  
 C. Kelley,  Jihan Kim,  R. A. King,  R. Z. Khaliullin,  P. P. Korambath,  
 W. Kurlancheek,  A. Laurent,  A. M. Lee,  M. S. Lee,  S. V. Levchenko,  
 Ching Yeh Lin,  D. Liotard,  E. Livshits,  R. C. Lochan,  I. Lotan,  
 L. A. Martinez-Martinez,  P. E. Maslen,  N. Nair,  D. P. O'Neill,  
 D. Neuhauser,  E. Neuscamman,  C. M. Oana,  R. Olivares-Amaya,  R. Olson,  
 T. M. Perrine,  B. Peters,  P. A. Pieniazek,  A. Prociuk,  Y. M. Rhee,  
 J. Ritchie,  M. A. Rohrdanz,  E. Rosta,  N. J. Russ,  H. F. Schaefer III,  
 M. W. Schmidt,  N. E. Schultz,  S. Sharma,  N. Shenvi,  C. D. Sherrill,  
 A. C. Simmonett,  A. Sodt,  T. Stein,  D. Stuck,  K. S. Thanthiriwatte,  
 V. Vanovschi,  L. Vogt,  Tao Wang,  A. Warshel,  M. A. Watson,  
 C. F. Williams,  Q. Wu,  X. Xu,  Jun Yang,  W. Zhang,  Yan Zhao

   Please cite Q-Chem as follows:
  "Software for the frontiers of quantum chemistry:
   An overview of developments in the Q-Chem 5 package"
   J. Chem. Phys. 155, 084801 (2021)
   https://doi.org/10.1063/5.0055522 (open access)

 Q-Chem 6.1.1 for Intel X86 EM64T Linux

 Parts of Q-Chem use Armadillo 9.900.5 (Nocturnal Misbehaviour).
 http://arma.sourceforge.net/

 Q-Chem begins on Wed Jun  5 15:01:29 2024  

 Host: 
0

     Scratch files written to /data/scratch/monomer_redo20240605150128//
 Jan1824 |scratch|qcdevops|jenkins|workspace|build_RNUM -1
 Processing $rem in /opt/qchem/6.1/config/preferences:
 Processing $rem in /home/ymao/.qchemrc:

 Checking the input file for inconsistencies... 	...done.

--------------------------------------------------------------
User input:
--------------------------------------------------------------
$molecule
0 1
Si      0.0001887359     0.0003470093     0.3792872377
C       1.6089105553    -0.7747831455    -0.2261681341
C      -0.1335670331     1.7811480953    -0.2259729615
C      -1.4751140863    -1.0059887548    -0.2261190550
H      -0.0000730053     0.0001833530     1.8795843690
H       1.6465883081    -0.7926652860    -1.3280164316
H       1.7118689047    -1.8127188795     0.1290623992
H       2.4854917124    -0.2100096094     0.1298007917
H       0.7124399537     2.3904004142     0.1305541694
H      -1.0622887210     2.2557732021     0.1293871399
H      -0.1362961602     1.8230835411    -1.3277752674
H      -1.5101884129    -1.0301005447    -1.3279447130
H      -2.4254928100    -0.5769059247     0.1298384398
H      -1.4225627227    -2.0473462151     0.1300727985
$end

$rem
JOBTYPE  OPT
GEN_SCFMAN  TRUE
METHOD  WB97X-V
BASIS  DEF2-SVPD
UNRESTRICTED  FALSE
MAX_SCF_CYCLES  2000
THRESH  14
SCF_CONVERGENCE  9
MEM_TOTAL  8000
MEM_STATIC  2000
SYMMETRY  FALSE
SYM_IGNORE  FALSE
SCF_ALGORITHM  DIIS
BASIS_LIN_DEP_THRESH  6
IDERIV  1
XC_GRID  000075000302
NL_GRID  1
FD_MAT_VEC_PROD  FALSE
GEOM_OPT_TOL_GRADIENT  50
GEOM_OPT_TOL_DISPLACEMENT  50
GEOM_OPT_TOL_ENERGY  10
GEOM_OPT_DRIVER  OPTIMIZE
GEOM_OPT_MAX_CYCLES  200
$end

--------------------------------------------------------------
 ----------------------------------------------------------------
             Standard Nuclear Orientation (Angstroms)
    I     Atom           X                Y                Z
 ----------------------------------------------------------------
    1      Si     -0.0001940090    -0.0001576308    -0.3813104504
    2      C       1.2088706273    -1.3143665141     0.2240048171
    3      C      -1.7429924403    -0.3894248433     0.2241709178
    4      C       0.5343051922     1.7038491012     0.2240146918
    5      H      -0.0003010077     0.0001277448    -1.8816075825
    6      H       1.2370636311    -1.3452163972     1.3258498579
    7      H       2.2319176757    -1.1114043417    -0.1313553307
    8      H       0.9230191086    -2.3172044995    -0.1319199397
    9      H      -2.0802858706    -1.3759264055    -0.1323057500
   10      H      -2.4669603290     0.3613902434    -0.1311049876
   11      H      -1.7837748249    -0.3989849150     1.3259784115
   12      H       0.5473272861     1.7444241235     1.3258383892
   13      H      -0.1523746500     2.4886159453    -0.1318635545
   14      H       1.5459848311     1.9560388711    -0.1323057690
 ----------------------------------------------------------------
 Molecular Point Group                 C1    NOp =  1
 Largest Abelian Subgroup              C1    NOp =  1
 Nuclear Repulsion Energy =         174.15777405 hartrees
 There are       21 alpha and       21 beta electrons
 Requested basis set is def2-SVPD
 There are 74 shells and 164 basis functions

 Total QAlloc Memory Limit   8000 MB
 Mega-Array Size      1956 MB
 MEM_STATIC part      2000 MB

 A cutoff of  1.0D-14 yielded   2760 shell pairs
 There are     13646 function pairs (     15034 Cartesian)
 Smallest overlap matrix eigenvalue = 2.24E-04

 Scale SEOQF with 1.000000e-01/1.000000e-01/1.000000e-01

 Standard Electronic Orientation quadrupole field applied
 Nucleus-field energy     =     0.0000000043 hartrees
 Guess from superposition of atomic densities
 Warning:  Energy on first SCF cycle will be non-variational
 SAD guess density has 42.000000 electrons

 -----------------------------------------------------------------------
  General SCF calculation program by
  Eric Jon Sundstrom, Paul Horn, Yuezhi Mao, Dmitri Zuev, Alec White,
  David Stuck, Shaama M.S., Shane Yost, Joonho Lee, David Small,
  Daniel Levine, Susi Lehtola, Hugh Burton, Evgeny Epifanovsky,
  Bang C. Huynh
 -----------------------------------------------------------------------
 Exchange:     0.1670 Hartree-Fock + 1.0000 wB97X-V + LR-HF
 Correlation:  1.0000 wB97X-V
 Using Euler-Maclaurin-Lebedev (75,302) quadrature formula
 Nonlocal Correlation:  VV10 with C = 0.0100 and b = 6.00 and scale = 1.00000
 Grid used for NLC:  SG-1 standard quadrature
 using 16 threads for integral computing
 -------------------------------------------------------
 OpenMP Integral computing Module                
 Release: version 1.0, May 2013, Q-Chem Inc. Pittsburgh 
 -------------------------------------------------------
 A restricted SCF calculation will be
 performed using DIIS
 SCF converges when DIIS error is below 1.0e-09
 ---------------------------------------
  Cycle       Energy         DIIS error
 ---------------------------------------
    1    -410.2047675287      3.95e-02  
    2    -409.5502596840      4.03e-03  
    3    -409.5856911130      2.55e-03  
    4    -409.6079963005      1.73e-04  
    5    -409.6081991455      3.84e-05  
    6    -409.6082067027      8.83e-06  
    7    -409.6082072504      1.37e-06  
    8    -409.6082072686      4.38e-07  
    9    -409.6082072699      7.00e-08  
   10    -409.6082072699      1.08e-08  
   11    -409.6082072699      3.67e-09  
   12    -409.6082072699      1.58e-09  
   13    -409.6082072699      1.58e-10  Convergence criterion met
 ---------------------------------------
 SCF time:   CPU 296.09s  wall 19.00s 
 SCF   energy =  -409.60820727
 Total energy =  -409.60820727
 
 --------------------------------------------------------------
 
                    Orbital Energies (a.u.)
 --------------------------------------------------------------
 
 Alpha MOs
 -- Occupied --
-66.1191 -10.2644 -10.2644 -10.2643  -5.3746  -3.7285  -3.7280  -3.7280
 -0.8391  -0.7990  -0.7990  -0.5920  -0.5280  -0.5157  -0.5156  -0.4958
 -0.4957  -0.4849  -0.4077  -0.4034  -0.4034
 -- Virtual --
  0.0804   0.1063   0.1063   0.1195   0.1563   0.1584   0.1584   0.1705
  0.1705   0.1878   0.1986   0.1986   0.2134   0.2135   0.2165   0.2231
  0.2359   0.2360   0.2389   0.2947   0.2948   0.3045   0.3106   0.3340
  0.3341   0.3502   0.3519   0.3519   0.3908   0.3908   0.4029   0.4136
  0.4156   0.4156   0.4159   0.4354   0.4354   0.4445   0.4445   0.4599
  0.4685   0.4719   0.4719   0.4839   0.4908   0.4908   0.5088   0.5088
  0.5175   0.5290   0.5459   0.5460   0.5476   0.5594   0.5595   0.6043
  0.6075   0.6076   0.6200   0.6200   0.6226   0.6269   0.6434   0.6435
  0.6948   0.7271   0.7272   0.7728   0.8360   0.8360   0.9057   0.9057
  0.9058   0.9623   0.9623   0.9732   0.9974   1.0357   1.0358   1.0359
  1.0690   1.0854   1.0857   1.1017   1.1018   1.1382   1.1621   1.1621
  1.1795   1.2471   1.2474   1.2676   1.2680   1.2829   1.3606   1.3875
  1.3876   1.4319   1.6860   1.7042   1.7043   1.7578   1.7580   1.7895
  1.8148   1.8149   1.8253   1.9271   1.9271   2.0197   2.0199   2.0242
  2.0299   2.0546   2.0654   2.0655   2.1009   2.1304   2.1305   2.1542
  2.2011   2.2012   2.2386   2.2389   2.3388   2.4554   2.4850   2.4851
  2.6149   2.6194   2.6195   2.6341   2.6342   2.6502   2.9046   2.9047
  2.9140   3.1747   3.1883   3.1884   3.2241   3.2242   3.2477
 --------------------------------------------------------------
 
          Ground-State Mulliken Net Atomic Charges

     Atom                 Charge (a.u.)
  ----------------------------------------
      1 Si                   -0.285242
      2 C                     0.070042
      3 C                     0.070070
      4 C                     0.070278
      5 H                     0.306898
      6 H                    -0.016659
      7 H                    -0.030105
      8 H                    -0.030766
      9 H                    -0.030508
     10 H                    -0.029944
     11 H                    -0.016795
     12 H                    -0.016908
     13 H                    -0.030283
     14 H                    -0.030078
  ----------------------------------------
  Sum of atomic charges =     0.000000

 -----------------------------------------------------------------
                    Cartesian Multipole Moments
 -----------------------------------------------------------------
    Charge (ESU x 10^10)
                 0.0000
    Dipole Moment (Debye)
         X      -0.0003      Y      -0.0003      Z       0.5563
       Tot       0.5563
    Quadrupole Moments (Debye-Ang)
        XX     -35.8633     XY      -0.0007     YY     -35.8635
        XZ       0.0001     YZ       0.0008     ZZ     -36.9620
    Octopole Moments (Debye-Ang^2)
       XXX       2.7431    XXY       2.1247    XYY      -2.7436
       YYY      -2.1351    XXZ      -1.7812    XYZ      -0.0004
       YYZ      -1.7802    XZZ       0.0004    YZZ       0.0001
       ZZZ       7.6668
    Hexadecapole Moments (Debye-Ang^3)
      XXXX    -313.0619   XXXY       0.0104   XXYY    -104.3167
      XYYY      -0.0193   YYYY    -312.9042   XXXZ       0.0801
      XXYZ       0.0649   XYYZ      -0.0784   YYYZ      -0.0534
      XXZZ     -70.9151   XYZZ       0.0048   YYZZ     -70.8863
      XZZZ      -0.0017   YZZZ       0.0027   ZZZZ    -113.1331
 -----------------------------------------------------------------
 Calculating analytic gradient of the SCF energy
 Gradient of SCF Energy
            1           2           3           4           5           6
    1  -0.0000828   0.0000143  -0.0000723   0.0000700   0.0000016  -0.0000112
    2  -0.0000467  -0.0000350  -0.0000439   0.0001057   0.0000017   0.0000308
    3   0.0001612  -0.0000670  -0.0000322  -0.0000680  -0.0001207  -0.0000096
            7           8           9          10          11          12
    1  -0.0000164   0.0000045   0.0000164   0.0000604   0.0000351   0.0000078
    2   0.0000230   0.0000091   0.0000067   0.0000230   0.0000261   0.0000010
    3   0.0000312   0.0000273   0.0000228   0.0000237  -0.0000366   0.0000046
           13          14
    1  -0.0000222  -0.0000053
    2  -0.0000479  -0.0000535
    3   0.0000286   0.0000348
 Max gradient component =       1.612E-04
 RMS gradient           =       4.995E-05
 Gradient time:  CPU 56.16 s  wall 3.52 s
 Geometry Optimization Parameters
   NAtoms,    NIC,     NZ,  NCons,   NDum,   NFix, NCnnct, MaxDiis
       14      92       0       0       0       0       0       0


** GEOMETRY OPTIMIZATION IN DELOCALIZED INTERNAL COORDINATES **
   Searching for a Minimum

   Optimization Cycle:   1

                       Coordinates (Angstroms)
     ATOM                X               Y               Z
      1  Si       -0.0001940090   -0.0001576308   -0.3813104504
      2  C         1.2088706273   -1.3143665141    0.2240048171
      3  C        -1.7429924403   -0.3894248433    0.2241709178
      4  C         0.5343051922    1.7038491012    0.2240146918
      5  H        -0.0003010077    0.0001277448   -1.8816075825
      6  H         1.2370636311   -1.3452163972    1.3258498579
      7  H         2.2319176757   -1.1114043417   -0.1313553307
      8  H         0.9230191086   -2.3172044995   -0.1319199397
      9  H        -2.0802858706   -1.3759264055   -0.1323057500
     10  H        -2.4669603290    0.3613902434   -0.1311049876
     11  H        -1.7837748249   -0.3989849150    1.3259784115
     12  H         0.5473272861    1.7444241235    1.3258383892
     13  H        -0.1523746500    2.4886159453   -0.1318635545
     14  H         1.5459848311    1.9560388711   -0.1323057690
   Point Group: c1    Number of degrees of freedom:    36


   Energy is   -409.608207270


 Attempting to generate delocalized internal coordinates
 Initial Hessian constructed with Jon Baker's OPTIMIZE code

 36 Hessian modes will be used to form the next step
  Hessian Eigenvalues:
     0.002968    0.002977    0.002981    0.037330    0.047051    0.047096
     0.054162    0.054201    0.054214    0.054658    0.054688    0.054692
     0.160000    0.160000    0.160000    0.160000    0.160000    0.160000
     0.160000    0.160000    0.160000    0.164113    0.164185    0.168493
     0.203829    0.203869    0.203883    0.333910    0.333921    0.333958
     0.334770    0.334782    0.334783    0.334790    0.334801    0.334806

 Minimum search - taking simple RFO step
 Searching for Lamda that Minimizes Along All modes
 Value Taken    Lamda =  -0.00000046
 Step Taken.  Stepsize is  0.003365

                             Maximum     Tolerance    Cnvgd?
         Gradient           0.000098      0.000050      NO
         Displacement       0.001725      0.000050      NO
         Energy change     *********      0.000000      NO


 New Cartesian Coordinates Obtained by Inverse Iteration

 Displacement from previous Coordinates is:  0.004643
 ----------------------------------------------------------------
             Standard Nuclear Orientation (Angstroms)
    I     Atom           X                Y                Z
 ----------------------------------------------------------------
    1      Si      0.0001057654     0.0000774767    -0.3811322079
    2      C       1.2088860574    -1.3145590791     0.2240811398
    3      C      -1.7428346690    -0.3893783371     0.2242123065
    4      C       0.5342332767     1.7041548995     0.2241400278
    5      H      -0.0000334209     0.0002888060    -1.8810501476
    6      H       1.2377791393    -1.3455474733     1.3259229102
    7      H       2.2318451393    -1.1125069828    -0.1321408122
    8      H       0.9221566820    -2.3172252040    -0.1317192549
    9      H      -2.0797314559    -1.3760162537    -0.1323363391
   10      H      -2.4672572190     0.3608548335    -0.1315288081
   11      H      -1.7842108008    -0.3989903018     1.3260612930
   12      H       0.5471511899     1.7449223609     1.3259449892
   13      H      -0.1523096831     2.4889605436    -0.1320559407
   14      H       1.5458252193     1.9567251939    -0.1323154350
 ----------------------------------------------------------------
 Molecular Point Group                 C1    NOp =  1
 Largest Abelian Subgroup              C1    NOp =  1
 Nuclear Repulsion Energy =         174.15223704 hartrees
 There are       21 alpha and       21 beta electrons
 Applying Cartesian multipole field
    Component          Value
    ---------          -----
     (2,0,0)        1.00000E-11
     (0,2,0)        2.00000E-11
     (0,0,2)       -3.00000E-11
 Nucleus-field energy     =     0.0000000043 hartrees
 Requested basis set is def2-SVPD
 There are 74 shells and 164 basis functions
 A cutoff of  1.0D-14 yielded   2760 shell pairs
 There are     13646 function pairs (     15034 Cartesian)
 Smallest overlap matrix eigenvalue = 2.24E-04
 Guess MOs from SCF MO coefficient file

 -----------------------------------------------------------------------
  General SCF calculation program by
  Eric Jon Sundstrom, Paul Horn, Yuezhi Mao, Dmitri Zuev, Alec White,
  David Stuck, Shaama M.S., Shane Yost, Joonho Lee, David Small,
  Daniel Levine, Susi Lehtola, Hugh Burton, Evgeny Epifanovsky,
  Bang C. Huynh
 -----------------------------------------------------------------------
 Exchange:     0.1670 Hartree-Fock + 1.0000 wB97X-V + LR-HF
 Correlation:  1.0000 wB97X-V
 Using Euler-Maclaurin-Lebedev (75,302) quadrature formula
 Nonlocal Correlation:  VV10 with C = 0.0100 and b = 6.00 and scale = 1.00000
 Grid used for NLC:  SG-1 standard quadrature
 A restricted SCF calculation will be
 performed using DIIS
 SCF converges when DIIS error is below 1.0e-09
 ---------------------------------------
  Cycle       Energy         DIIS error
 ---------------------------------------
    1    -409.6082072352      9.69e-06  
    2    -409.6082075574      1.62e-06  
    3    -409.6082075782      5.35e-07  
    4    -409.6082075797      2.69e-07  
    5    -409.6082075801      2.50e-08  
    6    -409.6082075801      8.97e-09  
    7    -409.6082075801      2.14e-09  
    8    -409.6082075801      5.31e-10  Convergence criterion met
 ---------------------------------------
 SCF time:   CPU 186.82s  wall 12.00s 
 SCF   energy =  -409.60820758
 Total energy =  -409.60820758
 
 --------------------------------------------------------------
 
                    Orbital Energies (a.u.)
 --------------------------------------------------------------
 
 Alpha MOs
 -- Occupied --
-66.1191 -10.2644 -10.2644 -10.2643  -5.3746  -3.7285  -3.7280  -3.7280
 -0.8391  -0.7990  -0.7990  -0.5921  -0.5280  -0.5156  -0.5156  -0.4958
 -0.4958  -0.4849  -0.4078  -0.4034  -0.4034
 -- Virtual --
  0.0804   0.1063   0.1063   0.1195   0.1563   0.1584   0.1584   0.1705
  0.1705   0.1878   0.1986   0.1986   0.2134   0.2134   0.2165   0.2231
  0.2359   0.2360   0.2389   0.2947   0.2947   0.3045   0.3105   0.3341
  0.3341   0.3501   0.3519   0.3519   0.3908   0.3908   0.4029   0.4136
  0.4156   0.4156   0.4160   0.4354   0.4354   0.4445   0.4445   0.4598
  0.4685   0.4718   0.4719   0.4839   0.4908   0.4908   0.5088   0.5088
  0.5175   0.5290   0.5460   0.5460   0.5475   0.5594   0.5594   0.6043
  0.6075   0.6075   0.6200   0.6200   0.6226   0.6270   0.6434   0.6435
  0.6947   0.7272   0.7272   0.7728   0.8360   0.8360   0.9057   0.9057
  0.9058   0.9623   0.9623   0.9732   0.9974   1.0357   1.0359   1.0359
  1.0689   1.0855   1.0856   1.1017   1.1017   1.1383   1.1621   1.1621
  1.1795   1.2472   1.2473   1.2677   1.2679   1.2827   1.3607   1.3875
  1.3875   1.4318   1.6860   1.7043   1.7043   1.7580   1.7580   1.7895
  1.8148   1.8148   1.8254   1.9270   1.9271   2.0198   2.0199   2.0242
  2.0299   2.0545   2.0653   2.0654   2.1008   2.1304   2.1304   2.1542
  2.2010   2.2010   2.2387   2.2388   2.3391   2.4556   2.4851   2.4852
  2.6148   2.6195   2.6195   2.6340   2.6340   2.6503   2.9045   2.9046
  2.9139   3.1747   3.1884   3.1884   3.2240   3.2241   3.2477
 --------------------------------------------------------------
 
          Ground-State Mulliken Net Atomic Charges

     Atom                 Charge (a.u.)
  ----------------------------------------
      1 Si                   -0.284811
      2 C                     0.069835
      3 C                     0.069828
      4 C                     0.069986
      5 H                     0.306899
      6 H                    -0.016840
      7 H                    -0.030105
      8 H                    -0.030411
      9 H                    -0.030362
     10 H                    -0.030021
     11 H                    -0.016861
     12 H                    -0.017063
     13 H                    -0.030101
     14 H                    -0.029972
  ----------------------------------------
  Sum of atomic charges =     0.000000

 -----------------------------------------------------------------
                    Cartesian Multipole Moments
 -----------------------------------------------------------------
    Charge (ESU x 10^10)
                -0.0000
    Dipole Moment (Debye)
         X       0.0004      Y       0.0000      Z       0.5551
       Tot       0.5551
    Quadrupole Moments (Debye-Ang)
        XX     -35.8641     XY      -0.0006     YY     -35.8629
        XZ      -0.0000     YZ       0.0003     ZZ     -36.9588
    Octopole Moments (Debye-Ang^2)
       XXX       2.7288    XXY       2.1190    XYY      -2.7418
       YYY      -2.1365    XXZ      -1.7859    XYZ      -0.0006
       YYZ      -1.7849    XZZ      -0.0028    YZZ      -0.0029
       ZZZ       7.6515
    Hexadecapole Moments (Debye-Ang^3)
      XXXX    -313.0433   XXXY       0.0074   XXYY    -104.3359
      XYYY      -0.0048   YYYY    -312.9984   XXXZ       0.0802
      XXYZ       0.0631   XYYZ      -0.0767   YYYZ      -0.0581
      XXZZ     -70.9010   XYZZ       0.0047   YYZZ     -70.8941
      XZZZ       0.0054   YZZZ       0.0048   ZZZZ    -113.0954
 -----------------------------------------------------------------
 Calculating analytic gradient of the SCF energy
 Gradient of SCF Energy
            1           2           3           4           5           6
    1  -0.0000212   0.0000050  -0.0000344   0.0000223  -0.0000032  -0.0000105
    2  -0.0000152  -0.0000271  -0.0000285   0.0000350   0.0000023   0.0000155
    3   0.0000078  -0.0000381  -0.0000276  -0.0000216   0.0000060   0.0000110
            7           8           9          10          11          12
    1  -0.0000031   0.0000113  -0.0000008   0.0000150   0.0000177   0.0000028
    2   0.0000090  -0.0000019   0.0000132   0.0000167   0.0000132  -0.0000047
    3   0.0000076   0.0000175   0.0000141   0.0000036   0.0000086   0.0000028
           13          14
    1  -0.0000029   0.0000020
    2  -0.0000074  -0.0000200
    3   0.0000059   0.0000025
 Max gradient component =       3.813E-05
 RMS gradient           =       1.618E-05
 Gradient time:  CPU 54.93 s  wall 3.44 s
 Geometry Optimization Parameters
   NAtoms,    NIC,     NZ,  NCons,   NDum,   NFix, NCnnct, MaxDiis
       14      92       0       0       0       0       0       0

 Cartesian Hessian Update
 Hessian updated using BFGS update


** GEOMETRY OPTIMIZATION IN DELOCALIZED INTERNAL COORDINATES **
   Searching for a Minimum

   Optimization Cycle:   2

                       Coordinates (Angstroms)
     ATOM                X               Y               Z
      1  Si        0.0001057654    0.0000774767   -0.3811322079
      2  C         1.2088860574   -1.3145590791    0.2240811398
      3  C        -1.7428346690   -0.3893783371    0.2242123065
      4  C         0.5342332767    1.7041548995    0.2241400278
      5  H        -0.0000334209    0.0002888060   -1.8810501476
      6  H         1.2377791393   -1.3455474733    1.3259229102
      7  H         2.2318451393   -1.1125069828   -0.1321408122
      8  H         0.9221566820   -2.3172252040   -0.1317192549
      9  H        -2.0797314559   -1.3760162537   -0.1323363391
     10  H        -2.4672572190    0.3608548335   -0.1315288081
     11  H        -1.7842108008   -0.3989903018    1.3260612930
     12  H         0.5471511899    1.7449223609    1.3259449892
     13  H        -0.1523096831    2.4889605436   -0.1320559407
     14  H         1.5458252193    1.9567251939   -0.1323154350
   Point Group: c1    Number of degrees of freedom:    36


   Energy is   -409.608207580

 Hessian updated using BFGS update

 29 Hessian modes will be used to form the next step
  Hessian Eigenvalues:
     0.002804    0.002969    0.002978    0.034875    0.040025    0.047249
     0.048862    0.054199    0.054259    0.054617    0.054677    0.054831
     0.129292    0.161401    0.162766    0.164221    0.189998    0.203499
     0.203868    0.213727    0.332685    0.333919    0.334079    0.334543
     0.334773    0.334786    0.334792    0.334798    0.343154

 Minimum search - taking simple RFO step
 Searching for Lamda that Minimizes Along All modes
 Value Taken    Lamda =  -0.00000016
 Step Taken.  Stepsize is  0.003300

                             Maximum     Tolerance    Cnvgd?
         Gradient           0.000047      0.000050     YES
         Displacement       0.001863      0.000050      NO
         Energy change     -0.000000      0.000000      NO


 New Cartesian Coordinates Obtained by Inverse Iteration

 Displacement from previous Coordinates is:  0.004875
 ----------------------------------------------------------------
             Standard Nuclear Orientation (Angstroms)
    I     Atom           X                Y                Z
 ----------------------------------------------------------------
    1      Si      0.0003716537     0.0003467014    -0.3809130422
    2      C       1.2087958488    -1.3146869649     0.2241575060
    3      C      -1.7426001425    -0.3893867858     0.2242747747
    4      C       0.5341995297     1.7044899345     0.2242875642
    5      H       0.0002683845     0.0004009491    -1.8807925948
    6      H       1.2384571736    -1.3458019103     1.3259566817
    7      H       2.2316580424    -1.1136220189    -0.1329254934
    8      H       0.9209820496    -2.3171187042    -0.1315083978
    9      H      -2.0789627408    -1.3762289162    -0.1323214682
   10      H      -2.4674310996     0.3602728189    -0.1318814531
   11      H      -1.7845342899    -0.3990093154     1.3261006797
   12      H       0.5469457502     1.7455431506     1.3260671201
   13      H      -0.1522943292     2.4892031760    -0.1322628675
   14      H       1.5457493902     1.9573583675    -0.1321552883
 ----------------------------------------------------------------
 Molecular Point Group                 C1    NOp =  1
 Largest Abelian Subgroup              C1    NOp =  1
 Nuclear Repulsion Energy =         174.15005680 hartrees
 There are       21 alpha and       21 beta electrons
 Applying Cartesian multipole field
    Component          Value
    ---------          -----
     (2,0,0)        1.00000E-11
     (0,2,0)        2.00000E-11
     (0,0,2)       -3.00000E-11
 Nucleus-field energy     =     0.0000000043 hartrees
 Requested basis set is def2-SVPD
 There are 74 shells and 164 basis functions
 A cutoff of  1.0D-14 yielded   2760 shell pairs
 There are     13646 function pairs (     15034 Cartesian)
 Smallest overlap matrix eigenvalue = 2.24E-04
 Guess MOs from SCF MO coefficient file

 -----------------------------------------------------------------------
  General SCF calculation program by
  Eric Jon Sundstrom, Paul Horn, Yuezhi Mao, Dmitri Zuev, Alec White,
  David Stuck, Shaama M.S., Shane Yost, Joonho Lee, David Small,
  Daniel Levine, Susi Lehtola, Hugh Burton, Evgeny Epifanovsky,
  Bang C. Huynh
 -----------------------------------------------------------------------
 Exchange:     0.1670 Hartree-Fock + 1.0000 wB97X-V + LR-HF
 Correlation:  1.0000 wB97X-V
 Using Euler-Maclaurin-Lebedev (75,302) quadrature formula
 Nonlocal Correlation:  VV10 with C = 0.0100 and b = 6.00 and scale = 1.00000
 Grid used for NLC:  SG-1 standard quadrature
 A restricted SCF calculation will be
 performed using DIIS
 SCF converges when DIIS error is below 1.0e-09
 ---------------------------------------
  Cycle       Energy         DIIS error
 ---------------------------------------
    1    -409.6082072978      9.48e-06  
    2    -409.6082076521      1.70e-06  
    3    -409.6082076760      4.34e-07  
    4    -409.6082076773      2.43e-07  
    5    -409.6082076775      2.86e-08  
    6    -409.6082076775      8.71e-09  
    7    -409.6082076775      1.48e-09  
    8    -409.6082076775      4.90e-10  Convergence criterion met
 ---------------------------------------
 SCF time:   CPU 184.31s  wall 12.00s 
 SCF   energy =  -409.60820768
 Total energy =  -409.60820768
 
 --------------------------------------------------------------
 
                    Orbital Energies (a.u.)
 --------------------------------------------------------------
 
 Alpha MOs
 -- Occupied --
-66.1191 -10.2644 -10.2644 -10.2643  -5.3746  -3.7285  -3.7280  -3.7280
 -0.8391  -0.7990  -0.7990  -0.5921  -0.5280  -0.5155  -0.5155  -0.4958
 -0.4958  -0.4848  -0.4078  -0.4035  -0.4034
 -- Virtual --
  0.0804   0.1063   0.1063   0.1195   0.1563   0.1583   0.1584   0.1705
  0.1705   0.1878   0.1986   0.1986   0.2134   0.2135   0.2165   0.2231
  0.2359   0.2360   0.2389   0.2947   0.2948   0.3045   0.3106   0.3341
  0.3341   0.3501   0.3519   0.3519   0.3908   0.3908   0.4028   0.4136
  0.4156   0.4156   0.4160   0.4354   0.4354   0.4445   0.4445   0.4598
  0.4685   0.4718   0.4718   0.4838   0.4908   0.4908   0.5088   0.5088
  0.5175   0.5290   0.5460   0.5461   0.5475   0.5594   0.5595   0.6043
  0.6075   0.6075   0.6200   0.6200   0.6226   0.6271   0.6435   0.6435
  0.6947   0.7271   0.7272   0.7728   0.8359   0.8360   0.9057   0.9057
  0.9058   0.9623   0.9623   0.9733   0.9974   1.0357   1.0359   1.0359
  1.0688   1.0854   1.0856   1.1016   1.1017   1.1383   1.1620   1.1621
  1.1796   1.2472   1.2473   1.2677   1.2679   1.2826   1.3608   1.3874
  1.3875   1.4317   1.6860   1.7043   1.7043   1.7581   1.7581   1.7895
  1.8147   1.8148   1.8254   1.9271   1.9271   2.0199   2.0200   2.0242
  2.0298   2.0545   2.0652   2.0653   2.1007   2.1304   2.1304   2.1542
  2.2009   2.2009   2.2387   2.2388   2.3391   2.4556   2.4852   2.4853
  2.6147   2.6195   2.6195   2.6339   2.6340   2.6503   2.9044   2.9044
  2.9138   3.1747   3.1885   3.1885   3.2240   3.2240   3.2477
 --------------------------------------------------------------
 
          Ground-State Mulliken Net Atomic Charges

     Atom                 Charge (a.u.)
  ----------------------------------------
      1 Si                   -0.284457
      2 C                     0.069791
      3 C                     0.069826
      4 C                     0.069795
      5 H                     0.306874
      6 H                    -0.017143
      7 H                    -0.030188
      8 H                    -0.029981
      9 H                    -0.030105
     10 H                    -0.030187
     11 H                    -0.017086
     12 H                    -0.017259
     13 H                    -0.029925
     14 H                    -0.029954
  ----------------------------------------
  Sum of atomic charges =     0.000000

 -----------------------------------------------------------------
                    Cartesian Multipole Moments
 -----------------------------------------------------------------
    Charge (ESU x 10^10)
                 0.0000
    Dipole Moment (Debye)
         X       0.0008      Y       0.0004      Z       0.5547
       Tot       0.5547
    Quadrupole Moments (Debye-Ang)
        XX     -35.8642     XY      -0.0003     YY     -35.8626
        XZ       0.0000     YZ       0.0001     ZZ     -36.9572
    Octopole Moments (Debye-Ang^2)
       XXX       2.7169    XXY       2.1143    XYY      -2.7418
       YYY      -2.1410    XXZ      -1.7888    XYZ      -0.0005
       YYZ      -1.7883    XZZ      -0.0059    YZZ      -0.0064
       ZZZ       7.6398
    Hexadecapole Moments (Debye-Ang^3)
      XXXX    -312.9900   XXXY      -0.0046   XXYY    -104.3475
      XYYY       0.0040   YYYY    -313.0961   XXXZ       0.0801
      XXYZ       0.0608   XYYZ      -0.0735   YYYZ      -0.0625
      XXZZ     -70.8834   XYZZ       0.0014   YYZZ     -70.9034
      XZZZ       0.0120   YZZZ       0.0056   ZZZZ    -113.0748
 -----------------------------------------------------------------
 Calculating analytic gradient of the SCF energy
 Gradient of SCF Energy
            1           2           3           4           5           6
    1   0.0000100  -0.0000069   0.0000033  -0.0000079  -0.0000044  -0.0000050
    2   0.0000004  -0.0000066   0.0000002  -0.0000107  -0.0000023   0.0000024
    3  -0.0000289  -0.0000010   0.0000008   0.0000112   0.0000178   0.0000066
            7           8           9          10          11          12
    1  -0.0000000   0.0000073  -0.0000111  -0.0000043   0.0000006   0.0000028
    2  -0.0000010  -0.0000055   0.0000059   0.0000048   0.0000041  -0.0000022
    3  -0.0000047   0.0000074   0.0000057  -0.0000030   0.0000105  -0.0000036
           13          14
    1   0.0000109   0.0000046
    2   0.0000088   0.0000018
    3  -0.0000061  -0.0000125
 Max gradient component =       2.891E-05
 RMS gradient           =       8.053E-06
 Gradient time:  CPU 55.54 s  wall 3.48 s
 Geometry Optimization Parameters
   NAtoms,    NIC,     NZ,  NCons,   NDum,   NFix, NCnnct, MaxDiis
       14      92       0       0       0       0       0       0

 Cartesian Hessian Update
 Hessian updated using BFGS update


** GEOMETRY OPTIMIZATION IN DELOCALIZED INTERNAL COORDINATES **
   Searching for a Minimum

   Optimization Cycle:   3

                       Coordinates (Angstroms)
     ATOM                X               Y               Z
      1  Si        0.0003716537    0.0003467014   -0.3809130422
      2  C         1.2087958488   -1.3146869649    0.2241575060
      3  C        -1.7426001425   -0.3893867858    0.2242747747
      4  C         0.5341995297    1.7044899345    0.2242875642
      5  H         0.0002683845    0.0004009491   -1.8807925948
      6  H         1.2384571736   -1.3458019103    1.3259566817
      7  H         2.2316580424   -1.1136220189   -0.1329254934
      8  H         0.9209820496   -2.3171187042   -0.1315083978
      9  H        -2.0789627408   -1.3762289162   -0.1323214682
     10  H        -2.4674310996    0.3602728189   -0.1318814531
     11  H        -1.7845342899   -0.3990093154    1.3261006797
     12  H         0.5469457502    1.7455431506    1.3260671201
     13  H        -0.1522943292    2.4892031760   -0.1322628675
     14  H         1.5457493902    1.9573583675   -0.1321552883
   Point Group: c1    Number of degrees of freedom:    36


   Energy is   -409.608207678

 Hessian updated using BFGS update

 30 Hessian modes will be used to form the next step
  Hessian Eigenvalues:
     0.002656    0.002970    0.002978    0.029561    0.041491    0.047239
     0.049336    0.054200    0.054279    0.054641    0.054684    0.055626
     0.117312    0.160205    0.162689    0.163656    0.165692    0.189316
     0.203604    0.203989    0.214980    0.333443    0.333933    0.334133
     0.334551    0.334774    0.334791    0.334794    0.335026    0.343477

 Minimum search - taking simple RFO step
 Searching for Lamda that Minimizes Along All modes
 Value Taken    Lamda =  -0.00000003
 Step Taken.  Stepsize is  0.001271

                             Maximum     Tolerance    Cnvgd?
         Gradient           0.000021      0.000050     YES
         Displacement       0.000685      0.000050      NO
         Energy change     -0.000000      0.000000     YES


                       Distance Matrix (Angstroms)
             Si(  1)   C (  2)   C (  3)   C (  4)   H (  5)   H (  6)
   C (  2)  1.885660
   C (  3)  1.885761  3.093044
   C (  4)  1.885562  3.093624  3.093240
   H (  5)  1.499880  2.760581  2.760586  2.760501
   H (  6)  2.501675  1.102637  3.318906  3.318725  3.691695
   H (  7)  2.506205  1.101899  4.055470  3.309187  3.045519  1.780082
   H (  8)  2.506067  1.101909  3.307174  4.055802  3.046080  1.780014
   H (  9)  2.506071  3.307601  1.101888  4.055443  3.045565  3.623917
   H ( 10)  2.506315  4.055478  1.101915  3.308106  3.045938  4.332389
   H ( 11)  2.501853  3.318549  1.102666  3.318920  3.691776  3.167790
   H ( 12)  2.501646  3.319226  3.318719  1.102618  3.691656  3.167744
   H ( 13)  2.505901  4.055759  3.307941  1.101897  3.045450  4.332189
   H ( 14)  2.505986  3.308591  4.055551  1.101920  3.045641  3.623726
             H (  7)   H (  8)   H (  9)   H ( 10)   H ( 11)   H ( 12)
   H (  8)  1.779404
   H (  9)  4.318613  3.144033
   H ( 10)  4.924815  4.318538  1.779423
   H ( 11)  4.332347  3.622649  1.780068  1.780048
   H ( 12)  3.625154  4.332396  4.332177  3.623680  3.167792
   H ( 13)  4.320136  4.924698  4.318983  3.145187  3.623921  1.780082
   H ( 14)  3.146648  4.319895  4.924565  4.319294  4.332409  1.780137
             H ( 13)
   H ( 14)  1.779385
 
 Final energy is   -409.608207677530     


 ******************************
 **  OPTIMIZATION CONVERGED  **
 ******************************

                       Coordinates (Angstroms)
     ATOM                X               Y               Z
      1  Si        0.0003716537    0.0003467014   -0.3809130422
      2  C         1.2087958488   -1.3146869649    0.2241575060
      3  C        -1.7426001425   -0.3893867858    0.2242747747
      4  C         0.5341995297    1.7044899345    0.2242875642
      5  H         0.0002683845    0.0004009491   -1.8807925948
      6  H         1.2384571736   -1.3458019103    1.3259566817
      7  H         2.2316580424   -1.1136220189   -0.1329254934
      8  H         0.9209820496   -2.3171187042   -0.1315083978
      9  H        -2.0789627408   -1.3762289162   -0.1323214682
     10  H        -2.4674310996    0.3602728189   -0.1318814531
     11  H        -1.7845342899   -0.3990093154    1.3261006797
     12  H         0.5469457502    1.7455431506    1.3260671201
     13  H        -0.1522943292    2.4892031760   -0.1322628675
     14  H         1.5457493902    1.9573583675   -0.1321552883

Z-matrix Print:
$molecule
0 1
Si
H  1 1.499880
C  1 1.885562 2 108.720534
H  3 1.101897 1 111.308417 2 60.067252 0
H  3 1.101920 1 111.313534 2 -60.081177 0
H  3 1.102618 1 110.955612 2 179.989327 0
C  1 1.885660 2 108.720348 3 -120.027834 0
H  7 1.101899 1 111.324203 2 60.030922 0
H  7 1.101909 1 111.313449 2 -60.130942 0
H  7 1.102637 1 110.950082 2 179.957796 0
C  1 1.885761 2 108.715474 3 119.995024 0
H  11 1.101888 1 111.307965 2 60.073489 0
H  11 1.101915 1 111.324675 2 -60.087619 0
H  11 1.102666 1 110.954981 2 179.989690 0
$end

 
 --------------------------------------------------------------
 
                    Orbital Energies (a.u.)
 --------------------------------------------------------------
 
 Alpha MOs
 -- Occupied --
-66.1191 -10.2644 -10.2644 -10.2643  -5.3746  -3.7285  -3.7280  -3.7280
 -0.8391  -0.7990  -0.7990  -0.5921  -0.5280  -0.5155  -0.5155  -0.4958
 -0.4958  -0.4848  -0.4078  -0.4035  -0.4034
 -- Virtual --
  0.0804   0.1063   0.1063   0.1195   0.1563   0.1583   0.1584   0.1705
  0.1705   0.1878   0.1986   0.1986   0.2134   0.2135   0.2165   0.2231
  0.2359   0.2360   0.2389   0.2947   0.2948   0.3045   0.3106   0.3341
  0.3341   0.3501   0.3519   0.3519   0.3908   0.3908   0.4028   0.4136
  0.4156   0.4156   0.4160   0.4354   0.4354   0.4445   0.4445   0.4598
  0.4685   0.4718   0.4718   0.4838   0.4908   0.4908   0.5088   0.5088
  0.5175   0.5290   0.5460   0.5461   0.5475   0.5594   0.5595   0.6043
  0.6075   0.6075   0.6200   0.6200   0.6226   0.6271   0.6435   0.6435
  0.6947   0.7271   0.7272   0.7728   0.8359   0.8360   0.9057   0.9057
  0.9058   0.9623   0.9623   0.9733   0.9974   1.0357   1.0359   1.0359
  1.0688   1.0854   1.0856   1.1016   1.1017   1.1383   1.1620   1.1621
  1.1796   1.2472   1.2473   1.2677   1.2679   1.2826   1.3608   1.3874
  1.3875   1.4317   1.6860   1.7043   1.7043   1.7581   1.7581   1.7895
  1.8147   1.8148   1.8254   1.9271   1.9271   2.0199   2.0200   2.0242
  2.0298   2.0545   2.0652   2.0653   2.1007   2.1304   2.1304   2.1542
  2.2009   2.2009   2.2387   2.2388   2.3391   2.4556   2.4852   2.4853
  2.6147   2.6195   2.6195   2.6339   2.6340   2.6503   2.9044   2.9044
  2.9138   3.1747   3.1885   3.1885   3.2240   3.2240   3.2477
 --------------------------------------------------------------
 
          Ground-State Mulliken Net Atomic Charges

     Atom                 Charge (a.u.)
  ----------------------------------------
      1 Si                   -0.284457
      2 C                     0.069791
      3 C                     0.069826
      4 C                     0.069795
      5 H                     0.306874
      6 H                    -0.017143
      7 H                    -0.030188
      8 H                    -0.029981
      9 H                    -0.030105
     10 H                    -0.030187
     11 H                    -0.017086
     12 H                    -0.017259
     13 H                    -0.029925
     14 H                    -0.029954
  ----------------------------------------
  Sum of atomic charges =     0.000000

 -----------------------------------------------------------------
                    Cartesian Multipole Moments
 -----------------------------------------------------------------
    Charge (ESU x 10^10)
                 0.0000
    Dipole Moment (Debye)
         X       0.0008      Y       0.0004      Z       0.5547
       Tot       0.5547
    Quadrupole Moments (Debye-Ang)
        XX     -35.8642     XY      -0.0003     YY     -35.8626
        XZ       0.0000     YZ       0.0001     ZZ     -36.9572
    Octopole Moments (Debye-Ang^2)
       XXX       2.7169    XXY       2.1143    XYY      -2.7418
       YYY      -2.1410    XXZ      -1.7888    XYZ      -0.0005
       YYZ      -1.7883    XZZ      -0.0059    YZZ      -0.0064
       ZZZ       7.6398
    Hexadecapole Moments (Debye-Ang^3)
      XXXX    -312.9900   XXXY      -0.0046   XXYY    -104.3475
      XYYY       0.0040   YYYY    -313.0961   XXXZ       0.0801
      XXYZ       0.0608   XYYZ      -0.0735   YYYZ      -0.0625
      XXZZ     -70.8834   XYZZ       0.0014   YYZZ     -70.9034
      XZZZ       0.0120   YZZZ       0.0056   ZZZZ    -113.0748
 -----------------------------------------------------------------
 Total job time:  53.07s(wall), 842.90s(cpu) 
 Wed Jun  5 15:02:23 2024

        *************************************************************
        *                                                           *
        *  Thank you very much for using Q-Chem.  Have a nice day.  *
        *                                                           *
        *************************************************************



Running Job 2 of 2 monomer_redo.in
qchem monomer_redo.in_1531965.1 /data/scratch/monomer_redo20240605150128/ 1
/opt/qchem/6.1/exe/qcprog.exe_s monomer_redo.in_1531965.1 /data/scratch/monomer_redo20240605150128/
                  Welcome to Q-Chem
     A Quantum Leap Into The Future Of Chemistry


 Q-Chem 6.1, Q-Chem, Inc., Pleasanton, CA (2023)

 E. Epifanovsky,  A. T. B. Gilbert,  Xintian Feng,  Joonho Lee,  Yuezhi Mao,  
 N. Mardirossian,  P. Pokhilko,  A. White,  M. Wormit,  M. P. Coons,  
 A. L. Dempwolff,  Zhengting Gan,  D. Hait,  P. R. Horn,  L. D. Jacobson,  
 I. Kaliman,  J. Kussmann,  A. W. Lange,  Ka Un Lao,  D. S. Levine,  Jie Liu,  
 S. C. McKenzie,  A. F. Morrison,  K. D. Nanda,  F. Plasser,  D. R. Rehn,  
 M. L. Vidal,  Zhi-Qiang You,  Ying Zhu,  B. Alam,  B. Albrecht,  
 A. Aldossary,  E. Alguire,  J. H. Andersen,  V. Athavale,  D. Barton,  
 K. Begam,  A. Behn,  N. Bellonzi,  Y. A. Bernard,  E. J. Berquist,  
 H. Burton,  A. Carreras,  K. Carter-Fenk,  Mathew Chow,  Romit Chakraborty,  
 Chandrima Chakravarty,  Junhan Chen,  A. D. Chien,  K. D. Closser,  
 V. Cofer-Shabica,  L. Cunha,  S. Dasgupta,  Jia Deng,  M. de Wergifosse,  
 M. Diedenhofen,  Hainam Do,  S. Ehlert,  Po-Tung Fang,  S. Fatehi,  
 Qingguo Feng,  T. Friedhoff,  Thomas Froitzheim,  B. Ganoe,  J. Gayvert,  
 Qinghui Ge,  G. Gidofalvi,  M. Gimferrer,  M. Goldey,  Montgomery Gray,  
 J. Gomes,  C. Gonzalez-Espinoza,  S. Gulania,  A. Gunina,  J. A. Gyamfi,  
 M. W. D. Hanson-Heine,  P. H. P. Harbach,  A. W. Hauser,  M. F. Herbst,  
 M. Hernandez Vera,  M. Hodecker,  Z. C. Holden,  S. Houck,  Xunkun Huang,  
 Kerwin Hui,  B. C. Huynh,  K. Ikeda,  M. Ivanov,  Hyunjun Ji,  Zuxin Jin,  
 Hanjie Jiang,  Subrata Jana,  B. Kaduk,  S. Kaehler,  R. Kang,  
 K. Khistyaev,  Jaehoon Kim,  Yongbin Kim,  P. Klunzinger,  Z. Koczor-Benda,  
 Joong Hoon Koh,  D. Kosenkov,  Saikiran Kotaru,  L. Koulias,  T. Kowalczyk,  
 C. M. Krauter,  K. Kue,  A. Kunitsa,  T. Kus,  A. Landau,  K. V. Lawler,  
 D. Lefrancois,  S. Lehtola,  Rain Li,  Shaozhi Li,  Yi-Pei Li,  
 Jiashu Liang,  M. Liebenthal,  Hung-Hsuan Lin,  You-Sheng Lin,  Fenglai Liu,  
 Kuan-Yu Liu,  Xiao Liu,  M. Loipersberger,  A. Luenser,  C. Malbon,  
 A. Manjanath,  P. Manohar,  E. Mansoor,  S. F. Manzer,  Shan-Ping Mao,  
 A. V. Marenich,  T. Markovich,  S. Mason,  F. Matz,  S. A. Maurer,  
 P. F. McLaughlin,  M. F. S. J. Menger,  J.-M. Mewes,  S. A. Mewes,  
 P. Morgante,  Mohammad Mostafanejad,  J. W. Mullinax,  K. J. Oosterbaan,  
 G. Paran,  V. Parravicini,  Alexander C. Paul,  Suranjan K. Paul,  
 F. Pavosevic,  Zheng Pei,  S. Prager,  E. I. Proynov,  E. Ramos,  B. Rana,  
 A. E. Rask,  A. Rettig,  R. M. Richard,  F. Rob,  E. Rossomme,  T. Scheele,  
 M. Scheurer,  M. Schneider,  P. E. Schneider,  Tim K. Schramm,  N. Sergueev,  
 S. M. Sharada,  M. Sharma,  Hengyuan Shen,  W. Skomorowski,  D. W. Small,  
 C. J. Stein,  Alistair J. Sterling,  Yingli Su,  Yu-Chuan Su,  
 E. J. Sundstrom,  J. Talbot,  Zhen Tao,  J. Thirman,  Hung-Yi Tsai,  
 T. Tsuchimochi,  N. M. Tubman,  C. Utku,  S. P. Veccham,  O. Vydrov,  
 J. Wenzel,  Jonathan Wong,  J. Witte,  A. Yamada,  Chou-Hsun Yang,  Kun Yao,  
 S. Yeganeh,  S. R. Yost,  A. Zech,  F. Zeller,  Igor Ying Zhang,  
 Xing Zhang,  Yu Zhang,  D. Zuev,  A. Aspuru-Guzik,  A. T. Bell,  
 N. A. Besley,  K. B. Bravaya,  B. R. Brooks,  D. Casanova,  Jeng-Da Chai,  
 Hsing-Ta Chen,  S. Coriani,  C. J. Cramer,  A. E. DePrince, III,  
 R. A. DiStasio Jr.,  A. Dreuw,  B. D. Dunietz,  T. R. Furlani,  
 W. A. Goddard III,  S. Grimme,  S. Hammes-Schiffer,  T. Head-Gordon,  
 W. J. Hehre,  Chao-Ping Hsu,  T.-C. Jagau,  Yousung Jung,  A. Klamt,  
 Jing Kong,  D. S. Lambrecht,  Xiangyuan Li,  WanZhen Liang,  N. J. Mayhall,  
 C. W. McCurdy,  J. B. Neaton,  T. Neudecker,  C. Ochsenfeld,  
 J. A. Parkhill,  R. Peverati,  V. A. Rassolov,  Haisheng Ren,  Yihan Shao,  
 L. V. Slipchenko,  R. P. Steele,  J. E. Subotnik,  A. J. W. Thom,  
 A. Tkatchenko,  D. G. Truhlar,  T. Van Voorhis,  Fan Wang,  
 T. A. Wesolowski,  K. B. Whaley,  H. L. Woodcock III,  P. M. Zimmerman,  
 S. Faraji,  P. M. W. Gill,  M. Head-Gordon,  J. M. Herbert,  A. I. Krylov

 Contributors to earlier versions of Q-Chem not listed above: 
 R. D. Adamson,  B. Austin,  R. Baer,  J. Baker,  G. J. O. Beran,  
 K. Brandhorst,  S. T. Brown,  E. F. C. Byrd,  Arup K. Chakraborty,  
 G. K. L. Chan,  Chun-Min Chang,  Yunqing Chen,  C.-L. Cheng,  
 Siu Hung Chien,  D. M. Chipman,  D. L. Crittenden,  H. Dachsel,  
 R. J. Doerksen,  A. D. Dutoi,  R. G. Edgar,  J. Fosso-Tande,  
 L. Fusti-Molnar,  D. Ghosh,  A. Ghysels,  A. Golubeva-Zadorozhnaya,  
 J. Gonthier,  M. S. Gordon,  S. R. Gwaltney,  G. Hawkins,  J. E. Herr,  
 A. Heyden,  S. Hirata,  E. G. Hohenstein,  G. Kedziora,  F. J. Keil,  
 C. Kelley,  Jihan Kim,  R. A. King,  R. Z. Khaliullin,  P. P. Korambath,  
 W. Kurlancheek,  A. Laurent,  A. M. Lee,  M. S. Lee,  S. V. Levchenko,  
 Ching Yeh Lin,  D. Liotard,  E. Livshits,  R. C. Lochan,  I. Lotan,  
 L. A. Martinez-Martinez,  P. E. Maslen,  N. Nair,  D. P. O'Neill,  
 D. Neuhauser,  E. Neuscamman,  C. M. Oana,  R. Olivares-Amaya,  R. Olson,  
 T. M. Perrine,  B. Peters,  P. A. Pieniazek,  A. Prociuk,  Y. M. Rhee,  
 J. Ritchie,  M. A. Rohrdanz,  E. Rosta,  N. J. Russ,  H. F. Schaefer III,  
 M. W. Schmidt,  N. E. Schultz,  S. Sharma,  N. Shenvi,  C. D. Sherrill,  
 A. C. Simmonett,  A. Sodt,  T. Stein,  D. Stuck,  K. S. Thanthiriwatte,  
 V. Vanovschi,  L. Vogt,  Tao Wang,  A. Warshel,  M. A. Watson,  
 C. F. Williams,  Q. Wu,  X. Xu,  Jun Yang,  W. Zhang,  Yan Zhao

   Please cite Q-Chem as follows:
  "Software for the frontiers of quantum chemistry:
   An overview of developments in the Q-Chem 5 package"
   J. Chem. Phys. 155, 084801 (2021)
   https://doi.org/10.1063/5.0055522 (open access)

 Q-Chem 6.1.1 for Intel X86 EM64T Linux

 Parts of Q-Chem use Armadillo 9.900.5 (Nocturnal Misbehaviour).
 http://arma.sourceforge.net/

 Q-Chem begins on Wed Jun  5 15:02:23 2024  

 Host: 
0

     Scratch files written to /data/scratch/monomer_redo20240605150128//
 Jan1824 |scratch|qcdevops|jenkins|workspace|build_RNUM -1
 Processing $rem in /opt/qchem/6.1/config/preferences:
 Processing $rem in /home/ymao/.qchemrc:

 Checking the input file for inconsistencies... 	...done.

--------------------------------------------------------------
User input:
--------------------------------------------------------------

$molecule
read
$end

$rem
JOBTYPE  FREQ
GEN_SCFMAN  TRUE
METHOD  WB97X-V
BASIS  DEF2-SVPD
UNRESTRICTED  FALSE
MAX_SCF_CYCLES  2000
THRESH  14
SCF_CONVERGENCE  9
MEM_TOTAL  8000
MEM_STATIC  2000
SYMMETRY  FALSE
SYM_IGNORE  FALSE
SCF_ALGORITHM  DIIS
BASIS_LIN_DEP_THRESH  6
XC_GRID  000075000302
NL_GRID  1
FD_MAT_VEC_PROD  FALSE
GEOM_OPT_TOL_GRADIENT  50
GEOM_OPT_TOL_DISPLACEMENT  50
GEOM_OPT_TOL_ENERGY  10
GEOM_OPT_DRIVER  OPTIMIZE
GEOM_OPT_MAX_CYCLES  200
$end
--------------------------------------------------------------
 ----------------------------------------------------------------
             Standard Nuclear Orientation (Angstroms)
    I     Atom           X                Y                Z
 ----------------------------------------------------------------
    1      Si     -0.0001410711    -0.0002094124     0.3810990591
    2      C       1.3779693861    -1.1361301316    -0.2240526859
    3      C       0.2953159847     1.7612445997    -0.2239464420
    4      C      -1.6731120172    -0.6248458474    -0.2241625968
    5      H      -0.0002109117    -0.0002286959     1.8809786144
    6      H       1.4106415957    -1.1639877758    -1.3258538640
    7      H       1.2321905098    -2.1683520651     0.1329471001
    8      H       2.3634733669    -0.7948618959     0.1316470543
    9      H       1.2626425122     2.1501531036     0.1326873100
   10      H      -0.4922345654     2.4446906980     0.1322589200
   11      H       0.3026772976     1.8037232502    -1.3257689169
   12      H      -1.7134130708    -0.6396932216    -1.3259436109
   13      H      -2.4936041763     0.0184338017     0.1324335470
   14      H      -1.8712276846    -1.6485571495     0.1321973673
 ----------------------------------------------------------------
 Molecular Point Group                 C1    NOp =  1
 Largest Abelian Subgroup              C1    NOp =  1
 Nuclear Repulsion Energy =         174.15005680 hartrees
 There are       21 alpha and       21 beta electrons
 Requested basis set is def2-SVPD
 There are 74 shells and 164 basis functions

 Total QAlloc Memory Limit   8000 MB
 Mega-Array Size      1956 MB
 MEM_STATIC part      2000 MB


                       Distance Matrix (Angstroms)
             Si(  1)   C (  2)   C (  3)   C (  4)   H (  5)   H (  6)
   C (  2)  1.885660
   C (  3)  1.885761  3.093044
   C (  4)  1.885562  3.093624  3.093240
   H (  5)  1.499880  2.760581  2.760586  2.760501
   H (  6)  2.501675  1.102637  3.318906  3.318725  3.691695
   H (  7)  2.506205  1.101899  4.055470  3.309187  3.045519  1.780082
   H (  8)  2.506067  1.101909  3.307174  4.055802  3.046080  1.780014
   H (  9)  2.506071  3.307601  1.101888  4.055443  3.045565  3.623917
   H ( 10)  2.506315  4.055478  1.101915  3.308106  3.045938  4.332389
   H ( 11)  2.501853  3.318549  1.102666  3.318920  3.691776  3.167790
   H ( 12)  2.501646  3.319226  3.318719  1.102618  3.691656  3.167744
   H ( 13)  2.505901  4.055759  3.307941  1.101897  3.045450  4.332189
   H ( 14)  2.505986  3.308591  4.055551  1.101920  3.045641  3.623726
             H (  7)   H (  8)   H (  9)   H ( 10)   H ( 11)   H ( 12)
   H (  8)  1.779404
   H (  9)  4.318613  3.144033
   H ( 10)  4.924815  4.318538  1.779423
   H ( 11)  4.332347  3.622649  1.780068  1.780048
   H ( 12)  3.625154  4.332396  4.332177  3.623680  3.167792
   H ( 13)  4.320136  4.924698  4.318983  3.145187  3.623921  1.780082
   H ( 14)  3.146648  4.319895  4.924565  4.319294  4.332409  1.780137
             H ( 13)
   H ( 14)  1.779385
 
 A cutoff of  1.0D-14 yielded   2760 shell pairs
 There are     13646 function pairs (     15034 Cartesian)
 Smallest overlap matrix eigenvalue = 2.24E-04
 Guess from superposition of atomic densities
 Warning:  Energy on first SCF cycle will be non-variational
 SAD guess density has 42.000000 electrons

 -----------------------------------------------------------------------
  General SCF calculation program by
  Eric Jon Sundstrom, Paul Horn, Yuezhi Mao, Dmitri Zuev, Alec White,
  David Stuck, Shaama M.S., Shane Yost, Joonho Lee, David Small,
  Daniel Levine, Susi Lehtola, Hugh Burton, Evgeny Epifanovsky,
  Bang C. Huynh
 -----------------------------------------------------------------------
 Exchange:     0.1670 Hartree-Fock + 1.0000 wB97X-V + LR-HF
 Correlation:  1.0000 wB97X-V
 Using Euler-Maclaurin-Lebedev (75,302) quadrature formula
 Nonlocal Correlation:  VV10 with C = 0.0100 and b = 6.00 and scale = 1.00000
 Grid used for NLC:  SG-1 standard quadrature
 using 16 threads for integral computing
 -------------------------------------------------------
 OpenMP Integral computing Module                
 Release: version 1.0, May 2013, Q-Chem Inc. Pittsburgh 
 -------------------------------------------------------
 A restricted SCF calculation will be
 performed using DIIS
 SCF converges when DIIS error is below 1.0e-09
 ---------------------------------------
  Cycle       Energy         DIIS error
 ---------------------------------------
    1    -410.2044754064      3.95e-02  
    2    -409.5502615906      4.03e-03  
    3    -409.5856836313      2.55e-03  
    4    -409.6079879364      1.73e-04  
    5    -409.6081907726      3.84e-05  
    6    -409.6081983358      8.83e-06  
    7    -409.6081988833      1.37e-06  
    8    -409.6081989016      4.38e-07  
    9    -409.6081989029      7.01e-08  
   10    -409.6081989029      1.11e-08  
   11    -409.6081989029      4.16e-09  
   12    -409.6081989029      1.57e-09  
   13    -409.6081989029      1.53e-10  Convergence criterion met
 ---------------------------------------
 SCF time:   CPU 302.75s  wall 19.00s 
 SCF   energy =  -409.60819890
 Total energy =  -409.60819890
 
 --------------------------------------------------------------
 
                    Orbital Energies (a.u.)
 --------------------------------------------------------------
 
 Alpha MOs
 -- Occupied --
-66.1191 -10.2644 -10.2644 -10.2643  -5.3746  -3.7285  -3.7280  -3.7280
 -0.8391  -0.7990  -0.7990  -0.5921  -0.5280  -0.5155  -0.5155  -0.4958
 -0.4958  -0.4848  -0.4078  -0.4035  -0.4034
 -- Virtual --
  0.0804   0.1063   0.1063   0.1195   0.1563   0.1583   0.1584   0.1705
  0.1705   0.1878   0.1986   0.1986   0.2134   0.2135   0.2165   0.2231
  0.2359   0.2360   0.2389   0.2947   0.2948   0.3045   0.3106   0.3341
  0.3341   0.3501   0.3519   0.3519   0.3908   0.3908   0.4028   0.4136
  0.4156   0.4156   0.4160   0.4354   0.4354   0.4445   0.4445   0.4598
  0.4685   0.4718   0.4718   0.4838   0.4908   0.4908   0.5088   0.5088
  0.5175   0.5290   0.5460   0.5461   0.5475   0.5594   0.5595   0.6043
  0.6075   0.6075   0.6200   0.6200   0.6225   0.6271   0.6435   0.6435
  0.6947   0.7271   0.7272   0.7728   0.8359   0.8360   0.9057   0.9058
  0.9058   0.9623   0.9623   0.9733   0.9974   1.0357   1.0359   1.0359
  1.0688   1.0854   1.0856   1.1016   1.1017   1.1383   1.1620   1.1621
  1.1796   1.2472   1.2473   1.2677   1.2679   1.2826   1.3608   1.3874
  1.3875   1.4317   1.6860   1.7043   1.7043   1.7581   1.7581   1.7895
  1.8147   1.8148   1.8254   1.9271   1.9271   2.0199   2.0200   2.0242
  2.0298   2.0545   2.0652   2.0653   2.1007   2.1304   2.1304   2.1542
  2.2009   2.2009   2.2387   2.2388   2.3391   2.4556   2.4852   2.4853
  2.6147   2.6195   2.6195   2.6339   2.6340   2.6503   2.9044   2.9044
  2.9138   3.1747   3.1885   3.1885   3.2240   3.2240   3.2477
 --------------------------------------------------------------
 
          Ground-State Mulliken Net Atomic Charges

     Atom                 Charge (a.u.)
  ----------------------------------------
      1 Si                   -0.284349
      2 C                     0.069779
      3 C                     0.069785
      4 C                     0.069727
      5 H                     0.306896
      6 H                    -0.017144
      7 H                    -0.030175
      8 H                    -0.029968
      9 H                    -0.030080
     10 H                    -0.030211
     11 H                    -0.017107
     12 H                    -0.017271
     13 H                    -0.029936
     14 H                    -0.029946
  ----------------------------------------
  Sum of atomic charges =     0.000000

 -----------------------------------------------------------------
                    Cartesian Multipole Moments
 -----------------------------------------------------------------
    Charge (ESU x 10^10)
                 0.0000
    Dipole Moment (Debye)
         X      -0.0004      Y      -0.0008      Z      -0.5547
       Tot       0.5547
    Quadrupole Moments (Debye-Ang)
        XX     -35.8626     XY      -0.0004     YY     -35.8644
        XZ       0.0001     YZ      -0.0000     ZZ     -36.9574
    Octopole Moments (Debye-Ang^2)
       XXX       1.6526    XXY       3.0398    XYY      -1.6544
       YYY      -3.0444    XXZ       1.7818    XYZ       0.0004
       YYZ       1.7819    XZZ      -0.0009    YZZ      -0.0007
       ZZZ      -7.6605
    Hexadecapole Moments (Debye-Ang^3)
      XXXX    -313.0962   XXXY       0.0027   XXYY    -104.3461
      XYYY      -0.0093   YYYY    -312.9950   XXXZ      -0.0493
      XXYZ      -0.0842   XYYZ       0.0477   YYYZ       0.0814
      XXZZ     -70.9029   XYZZ       0.0002   YYZZ     -70.8828
      XZZZ       0.0028   YZZZ       0.0028   ZZZZ    -113.0807
 -----------------------------------------------------------------
 Calculating MO derivatives via CPSCF
    1     0    45    0.0376682  
    2     0    45    0.0073212  
    3     0    45    0.0012507  
    4     0    45    0.0001780  
    5     0    45    0.0000168  
    6    38     7    0.0000019  
    7    45     0    0.0000002  Converged
 Polarizability Matrix (a.u.)
            1           2           3
    1 -67.6010854   0.0002530   0.0010842
    2   0.0002530 -67.5960225   0.0014992
    3   0.0010842   0.0014992 -60.0259589
 Calculating analytic Hessian of the SCF energy
 
 Direct stationary perturbation theory relativistic correction:
 
 rels  =       0.361568198826
 relv  =      -1.351852456497
 rel2e =       0.000000000000
 E_rel =      -0.990284257670
 
 **********************************************************************
 **                                                                  **
 **                       VIBRATIONAL ANALYSIS                       **
 **                       --------------------                       **
 **                                                                  **
 **        VIBRATIONAL FREQUENCIES (CM**-1) AND NORMAL MODES         **
 **     FORCE CONSTANTS (mDYN/ANGSTROM) AND REDUCED MASSES (AMU)     **
 **                  INFRARED INTENSITIES (KM/MOL)                   **
 **                                                                  **
 **********************************************************************
 

 Mode:                 1                      2                      3
 Frequency:       126.69                 158.15                 159.43
 Force Cnst:      0.0096                 0.0155                 0.0157
 Red. Mass:       1.0114                 1.0487                 1.0456
 IR Active:          YES                    YES                    YES
 IR Intens:        0.000                  0.000                  0.001
 Raman Active:       YES                    YES                    YES
               X      Y      Z        X      Y      Z        X      Y      Z
 Si         0.000  0.001 -0.000   -0.002 -0.001  0.001    0.000 -0.000  0.001
 C         -0.007 -0.009  0.000    0.004  0.017 -0.018    0.014 -0.004  0.039
 C          0.010 -0.001  0.001    0.012 -0.012 -0.026   -0.011 -0.011 -0.035
 C         -0.003  0.009 -0.001   -0.015 -0.004  0.043   -0.003  0.014 -0.005
 H          0.000  0.001 -0.000    0.008  0.004  0.001   -0.004  0.009  0.001
 H         -0.228 -0.276  0.000    0.261  0.359 -0.020    0.164  0.120  0.040
 H          0.163  0.065  0.283   -0.195 -0.078 -0.375   -0.090 -0.037 -0.098
 H          0.032  0.173 -0.283   -0.041 -0.205  0.319   -0.017 -0.097  0.214
 H         -0.132  0.105  0.271   -0.152  0.116  0.277    0.110 -0.087 -0.281
 H         -0.159 -0.056 -0.268   -0.182 -0.063 -0.358    0.132  0.045  0.173
 H          0.337 -0.055  0.001    0.393 -0.105 -0.028   -0.292 -0.002 -0.037
 H         -0.119  0.324 -0.001   -0.073  0.036  0.045   -0.161  0.458 -0.005
 H         -0.026 -0.173  0.273   -0.006 -0.029  0.110   -0.034 -0.236  0.375
 H          0.133 -0.113 -0.276    0.019 -0.019  0.017    0.181 -0.156 -0.392
 TransDip   0.000  0.000  0.000    0.000  0.000  0.001   -0.000  0.001  0.000

 Mode:                 4                      5                      6
 Frequency:       198.22                 199.21                 233.08
 Force Cnst:      0.0512                 0.0516                 0.0738
 Red. Mass:       2.2101                 2.2054                 2.3069
 IR Active:          YES                    YES                    YES
 IR Intens:        0.828                  0.831                  1.606
 Raman Active:       YES                    YES                    YES
               X      Y      Z        X      Y      Z        X      Y      Z
 Si        -0.077  0.057  0.000   -0.057 -0.077  0.003    0.001  0.001  0.170
 C         -0.079  0.078 -0.034    0.137  0.159  0.001   -0.073  0.055 -0.086
 C          0.193  0.019  0.016    0.078 -0.114 -0.031   -0.017 -0.088 -0.084
 C          0.006 -0.187  0.018   -0.125  0.075  0.026    0.088  0.031 -0.087
 H         -0.101  0.076  0.000   -0.076 -0.102  0.003    0.001  0.000  0.163
 H         -0.133  0.122 -0.038    0.157  0.186  0.001   -0.321  0.246 -0.101
 H         -0.046  0.061 -0.072    0.475  0.115  0.002   -0.001 -0.008 -0.242
 H         -0.066  0.082 -0.075    0.028  0.483 -0.001    0.008 -0.004 -0.259
 H          0.305 -0.272  0.037    0.144 -0.239 -0.071    0.004  0.010 -0.251
 H          0.392  0.237  0.032    0.185  0.025 -0.068   -0.006  0.007 -0.247
 H          0.231  0.045  0.018    0.081 -0.183 -0.035   -0.071 -0.395 -0.099
 H         -0.014 -0.238  0.020   -0.184  0.083  0.029    0.384  0.132 -0.102
 H         -0.157 -0.406  0.029    0.003  0.220  0.064   -0.007  0.002 -0.259
 H          0.293 -0.235  0.048   -0.287  0.115  0.049   -0.002 -0.005 -0.245
 TransDip  -0.023  0.017  0.000   -0.017 -0.023  0.001    0.000  0.001  0.041

 Mode:                 7                      8                      9
 Frequency:       602.30                 602.82                 626.59
 Force Cnst:      0.2284                 0.2287                 0.7504
 Red. Mass:       1.0684                 1.0680                 3.2441
 IR Active:          YES                    YES                    YES
 IR Intens:        7.805                  7.808                  1.548
 Raman Active:       YES                    YES                    YES
               X      Y      Z        X      Y      Z        X      Y      Z
 Si         0.003 -0.010 -0.000   -0.010 -0.003 -0.000   -0.000 -0.000  0.101
 C          0.006 -0.020  0.041   -0.021 -0.004 -0.030    0.184 -0.152 -0.050
 C          0.005 -0.022 -0.047   -0.020 -0.007 -0.021    0.039  0.235 -0.050
 C          0.005 -0.019  0.005   -0.020 -0.005  0.051   -0.224 -0.084 -0.049
 H         -0.153  0.580  0.000    0.581  0.153  0.000    0.005  0.007  0.093
 H         -0.265  0.272  0.019    0.245 -0.129 -0.014    0.086 -0.069 -0.060
 H          0.158 -0.126 -0.218    0.034  0.032  0.100    0.248 -0.202 -0.159
 H          0.071 -0.003 -0.162   -0.139  0.138  0.175    0.243 -0.201 -0.158
 H         -0.054 -0.089  0.195   -0.004 -0.184  0.140    0.051  0.311 -0.155
 H         -0.027 -0.198  0.234    0.054  0.039  0.054    0.054  0.311 -0.155
 H          0.041  0.422 -0.021    0.094  0.177 -0.009    0.020  0.115 -0.060
 H          0.019  0.082  0.002    0.435  0.155  0.023   -0.099 -0.037 -0.060
 H          0.087  0.077  0.024   -0.167 -0.040 -0.238   -0.299 -0.112 -0.161
 H         -0.142 -0.014 -0.070   -0.127 -0.077 -0.228   -0.300 -0.111 -0.161
 TransDip   0.023 -0.087  0.000   -0.087 -0.023  0.000   -0.000 -0.001  0.040

 Mode:                10                     11                     12
 Frequency:       661.40                 714.56                 714.93
 Force Cnst:      0.3013                 0.8332                 0.8332
 Red. Mass:       1.1691                 2.7697                 2.7669
 IR Active:          YES                    YES                    YES
 IR Intens:        0.000                  9.119                  9.040
 Raman Active:       YES                    YES                    YES
               X      Y      Z        X      Y      Z        X      Y      Z
 Si         0.001  0.000 -0.000   -0.095 -0.121  0.000    0.120 -0.095  0.000
 C         -0.045 -0.053  0.000   -0.055 -0.057  0.002   -0.180  0.152  0.081
 C          0.070 -0.012  0.000   -0.002  0.210 -0.072    0.086  0.100 -0.039
 C         -0.025  0.065 -0.000    0.202  0.033  0.069   -0.092 -0.106 -0.042
 H          0.002  0.000 -0.000   -0.183 -0.233  0.000    0.235 -0.183  0.000
 H          0.099  0.119 -0.000    0.065  0.090  0.002   -0.231  0.185  0.087
 H          0.351 -0.133 -0.092    0.280 -0.128 -0.078   -0.252  0.183  0.123
 H         -0.200  0.321  0.093   -0.190  0.260  0.083   -0.215  0.195  0.118
 H         -0.060  0.376 -0.093    0.042  0.117 -0.068   -0.008  0.413 -0.127
 H         -0.180 -0.337  0.093    0.117  0.390 -0.143   -0.079 -0.106  0.011
 H         -0.153  0.025  0.000    0.093  0.250 -0.076   -0.069  0.157 -0.042
 H          0.054 -0.147 -0.000    0.218  0.140  0.074   -0.177  0.035 -0.045
 H         -0.296 -0.239 -0.094    0.364  0.193  0.144    0.075  0.091  0.005
 H          0.376  0.012  0.092    0.089  0.060  0.062   -0.416 -0.074 -0.132
 TransDip  -0.000  0.000 -0.000   -0.059 -0.076  0.000    0.076 -0.060 -0.000

 Mode:                13                     14                     15
 Frequency:       837.27                 837.48                 859.84
 Force Cnst:      0.5927                 0.5920                 0.6883
 Red. Mass:       1.4350                 1.4326                 1.5802
 IR Active:          YES                    YES                    YES
 IR Intens:       19.882                 19.637                 64.726
 Raman Active:       YES                    YES                    YES
               X      Y      Z        X      Y      Z        X      Y      Z
 Si        -0.058  0.027  0.000    0.027  0.057 -0.001    0.001  0.001  0.092
 C          0.029  0.013 -0.075   -0.068 -0.088 -0.018   -0.016  0.011 -0.101
 C          0.108 -0.022  0.021   -0.033 -0.008  0.076   -0.004 -0.020 -0.100
 C          0.038 -0.073  0.054    0.018 -0.079 -0.054    0.019  0.006 -0.101
 H         -0.281  0.134  0.000    0.132  0.285 -0.001   -0.000  0.000  0.078
 H          0.236 -0.252 -0.059    0.172  0.080 -0.014    0.345 -0.281 -0.071
 H         -0.123  0.097  0.126    0.373 -0.162 -0.077   -0.068  0.114  0.195
 H          0.008 -0.074  0.074   -0.256  0.343  0.124   -0.132  0.055  0.198
 H         -0.030  0.426 -0.127    0.044 -0.066 -0.073   -0.063 -0.125  0.196
 H         -0.175 -0.361  0.072    0.032  0.162 -0.129    0.021 -0.134  0.194
 H         -0.182 -0.064  0.016   -0.010 -0.347  0.060    0.073  0.433 -0.071
 H          0.187  0.206  0.043   -0.274  0.030 -0.043   -0.422 -0.156 -0.072
 H          0.211  0.182  0.003    0.286  0.171  0.144    0.141  0.007  0.199
 H         -0.335 -0.059 -0.146   -0.271 -0.000 -0.002    0.104  0.086  0.196
 TransDip  -0.130  0.060  0.000    0.061  0.128 -0.003    0.002  0.003  0.258

 Mode:                16                     17                     18
 Frequency:       913.63                 913.73                1269.70
 Force Cnst:      0.6494                 0.6492                 1.2206
 Red. Mass:       1.3204                 1.3198                 1.2850
 IR Active:          YES                    YES                    YES
 IR Intens:      158.565                158.290                 42.433
 Raman Active:       YES                    YES                    YES
               X      Y      Z        X      Y      Z        X      Y      Z
 Si         0.008 -0.081  0.000   -0.081 -0.008  0.000    0.001  0.016 -0.000
 C          0.002  0.046 -0.043    0.045  0.011  0.043    0.048 -0.044 -0.021
 C         -0.007  0.040  0.059    0.051  0.002  0.016   -0.021 -0.126  0.042
 C         -0.008  0.051 -0.016    0.041  0.001 -0.060   -0.038 -0.018 -0.013
 H         -0.077  0.806  0.000    0.806  0.077  0.000   -0.001 -0.019 -0.001
 H          0.080 -0.152 -0.030   -0.164  0.050  0.030   -0.183  0.168 -0.028
 H         -0.192  0.128  0.126   -0.045 -0.026 -0.084   -0.203  0.049  0.126
 H         -0.016 -0.050  0.084    0.161 -0.164 -0.125   -0.092  0.199  0.116
 H          0.046  0.092 -0.135   -0.010  0.211 -0.066   -0.118  0.406 -0.240
 H          0.028  0.187 -0.150   -0.074 -0.120 -0.010    0.244  0.345 -0.241
 H         -0.011 -0.215  0.040   -0.098 -0.041  0.011    0.080  0.484  0.055
 H         -0.024 -0.106 -0.011   -0.212 -0.054 -0.041    0.142  0.069 -0.017
 H         -0.104 -0.097  0.010    0.178  0.062  0.151    0.098  0.103  0.070
 H          0.211  0.031  0.067    0.082  0.063  0.136    0.130 -0.013  0.082
 TransDip   0.038 -0.401  0.001   -0.401 -0.038  0.001    0.011  0.208 -0.007

 Mode:                19                     20                     21
 Frequency:      1270.59                1277.66                1424.91
 Force Cnst:      1.2224                 1.2025                 1.2588
 Red. Mass:       1.2852                 1.2502                 1.0523
 IR Active:          YES                    YES                    YES
 IR Intens:       42.693                  8.119                  0.001
 Raman Active:       YES                    YES                    YES
               X      Y      Z        X      Y      Z        X      Y      Z
 Si         0.016 -0.001 -0.000    0.001  0.001  0.005   -0.000  0.000 -0.000
 C         -0.079  0.062  0.034    0.064 -0.053 -0.030    0.023  0.028 -0.000
 C         -0.006 -0.015  0.005    0.011  0.069 -0.025   -0.037  0.007  0.001
 C         -0.102 -0.036 -0.036   -0.082 -0.031 -0.032    0.013 -0.034 -0.001
 H         -0.019  0.001 -0.001   -0.001 -0.001  0.015    0.000 -0.001 -0.000
 H          0.305 -0.239  0.043   -0.259  0.216 -0.039   -0.267 -0.322  0.000
 H          0.328 -0.081 -0.187   -0.280  0.074  0.174    0.040 -0.071 -0.261
 H          0.139 -0.300 -0.194   -0.126  0.261  0.172   -0.078  0.023  0.264
 H         -0.013  0.046 -0.037    0.064 -0.238  0.148    0.050  0.064 -0.277
 H          0.035  0.049 -0.025   -0.138 -0.204  0.148    0.010 -0.086  0.262
 H          0.026  0.059  0.007   -0.047 -0.283 -0.033    0.425 -0.065  0.001
 H          0.390  0.139 -0.046    0.334  0.126 -0.041   -0.141  0.394 -0.001
 H          0.246  0.258  0.205    0.217  0.219  0.181   -0.084 -0.006 -0.255
 H          0.361 -0.034  0.200    0.308 -0.023  0.183    0.052  0.060  0.270
 TransDip   0.209 -0.012 -0.003    0.008  0.017  0.089    0.000 -0.001  0.000

 Mode:                22                     23                     24
 Frequency:      1427.62                1427.88                1437.02
 Force Cnst:      1.2603                 1.2609                 1.2733
 Red. Mass:       1.0495                 1.0496                 1.0465
 IR Active:          YES                    YES                    YES
 IR Intens:        0.011                  0.019                  3.425
 Raman Active:       YES                    YES                    YES
               X      Y      Z        X      Y      Z        X      Y      Z
 Si         0.001  0.000  0.000   -0.000  0.000  0.000   -0.008 -0.001  0.000
 C          0.003  0.018 -0.026    0.017  0.000  0.036   -0.023 -0.024 -0.012
 C          0.015 -0.009 -0.018   -0.010 -0.013 -0.040   -0.041  0.006 -0.006
 C         -0.014 -0.008  0.044   -0.008  0.016  0.004   -0.007  0.007  0.018
 H          0.009  0.002  0.000   -0.002  0.009  0.000    0.030  0.005 -0.000
 H         -0.245 -0.050 -0.025    0.087 -0.241  0.036    0.199  0.366 -0.013
 H          0.238  0.009  0.064   -0.292 -0.085 -0.343    0.053  0.096  0.350
 H         -0.039 -0.208  0.308   -0.024  0.320 -0.179    0.080 -0.130 -0.173
 H         -0.123  0.082  0.254   -0.220  0.279  0.232    0.023  0.130 -0.289
 H          0.128  0.117  0.008    0.307  0.153  0.354    0.059 -0.086  0.370
 H         -0.212 -0.076 -0.018    0.055 -0.260 -0.040    0.503 -0.121 -0.006
 H         -0.263 -0.066  0.043    0.048 -0.206  0.004   -0.072 -0.148  0.019
 H          0.115  0.359 -0.337    0.056  0.036  0.100    0.070  0.141 -0.058
 H          0.331 -0.188 -0.300   -0.000 -0.048 -0.164    0.108 -0.092 -0.204
 TransDip   0.003  0.001 -0.000   -0.001  0.004 -0.000    0.059  0.009 -0.000

 Mode:                25                     26                     27
 Frequency:      1437.21                1444.52                2208.64
 Force Cnst:      1.2735                 1.2834                 2.9885
 Red. Mass:       1.0464                 1.0439                 1.0398
 IR Active:          YES                    YES                    YES
 IR Intens:        3.415                 10.433                162.182
 Raman Active:       YES                    YES                    YES
               X      Y      Z        X      Y      Z        X      Y      Z
 Si         0.001 -0.008 -0.000    0.000 -0.000  0.009   -0.000  0.000 -0.034
 C         -0.016 -0.024  0.012    0.009 -0.008  0.030   -0.000  0.000 -0.001
 C          0.013 -0.006 -0.017    0.002  0.011  0.030   -0.000 -0.000 -0.001
 C          0.015 -0.041  0.003   -0.010 -0.004  0.030    0.000  0.000 -0.001
 H         -0.005  0.030 -0.000   -0.000  0.000  0.007   -0.000 -0.000  0.999
 H          0.294  0.225  0.013    0.168 -0.135  0.031    0.005 -0.004 -0.004
 H         -0.141  0.044  0.139   -0.292 -0.054 -0.236    0.002  0.002 -0.002
 H          0.074  0.076 -0.322   -0.002  0.295 -0.240   -0.002 -0.003 -0.002
 H         -0.112  0.073  0.231    0.190 -0.224 -0.235   -0.003  0.001 -0.002
 H          0.117  0.104  0.018   -0.253 -0.149 -0.238    0.003 -0.000 -0.002
 H         -0.184 -0.083 -0.018    0.033  0.211  0.031    0.001  0.006 -0.004
 H         -0.212  0.500  0.004   -0.204 -0.069  0.031   -0.006 -0.002 -0.004
 H         -0.108  0.024 -0.372    0.096  0.276 -0.240    0.001 -0.003 -0.002
 H          0.113  0.060  0.321    0.256 -0.143 -0.232   -0.001  0.003 -0.002
 TransDip  -0.009  0.058  0.001   -0.001  0.000 -0.103    0.000  0.000 -0.408

 Mode:                28                     29                     30
 Frequency:      3046.54                3046.76                3046.88
 Force Cnst:      5.6705                 5.6721                 5.6726
 Red. Mass:       1.0370                 1.0371                 1.0371
 IR Active:          YES                    YES                    YES
 IR Intens:        2.732                  5.282                  5.647
 Raman Active:       YES                    YES                    YES
               X      Y      Z        X      Y      Z        X      Y      Z
 Si        -0.000 -0.000  0.000    0.000  0.001  0.000    0.001 -0.000  0.000
 C          0.015 -0.012 -0.008    0.024 -0.020 -0.013   -0.023  0.019  0.013
 C          0.006  0.038 -0.016   -0.005 -0.027  0.012   -0.000 -0.003  0.001
 C         -0.018 -0.007 -0.008   -0.022 -0.008 -0.010   -0.034 -0.013 -0.016
 H          0.000  0.001 -0.001   -0.000 -0.002 -0.000   -0.002  0.000 -0.000
 H         -0.004  0.003  0.249   -0.006  0.005  0.403    0.006 -0.005 -0.382
 H          0.034  0.216 -0.077    0.056  0.341 -0.123   -0.053 -0.327  0.118
 H         -0.204 -0.075 -0.077   -0.331 -0.122 -0.125    0.307  0.114  0.117
 H         -0.406 -0.154 -0.154    0.281  0.106  0.107    0.028  0.010  0.011
 H          0.333 -0.278 -0.154   -0.230  0.191  0.106   -0.028  0.024  0.013
 H         -0.002 -0.010  0.497    0.001  0.007 -0.348    0.000  0.001 -0.038
 H          0.004  0.002  0.240    0.005  0.002  0.296    0.009  0.003  0.473
 H          0.163 -0.132 -0.074    0.202 -0.165 -0.092    0.315 -0.259 -0.145
 H          0.037  0.209 -0.075    0.043  0.251 -0.091    0.070  0.406 -0.146
 TransDip   0.005  0.025 -0.046   -0.002 -0.072 -0.016   -0.076  0.004 -0.002

 Mode:                31                     32                     33
 Frequency:      3137.57                3137.80                3139.34
 Force Cnst:      6.3900                 6.3910                 6.3933
 Red. Mass:       1.1017                 1.1017                 1.1010
 IR Active:          YES                    YES                    YES
 IR Intens:        1.437                  1.527                 25.782
 Raman Active:       YES                    YES                    YES
               X      Y      Z        X      Y      Z        X      Y      Z
 Si         0.000 -0.000 -0.000    0.000  0.000  0.000   -0.000  0.000 -0.001
 C          0.016 -0.007  0.046    0.014 -0.014  0.053   -0.016  0.010 -0.050
 C         -0.006 -0.026 -0.071   -0.004  0.008  0.019   -0.004 -0.017 -0.046
 C         -0.008  0.002  0.017    0.022  0.010 -0.066    0.018  0.007 -0.053
 H          0.000 -0.001  0.000    0.001  0.000 -0.000    0.000  0.000  0.008
 H          0.015 -0.012 -0.421    0.017 -0.015 -0.482   -0.018  0.014  0.456
 H          0.029  0.185 -0.056    0.041  0.267 -0.084   -0.033 -0.218  0.068
 H         -0.240 -0.086 -0.080   -0.221 -0.080 -0.071    0.238  0.084  0.078
 H          0.327  0.127  0.109   -0.049 -0.018 -0.014    0.207  0.081  0.069
 H         -0.246  0.208  0.098    0.096 -0.083 -0.041   -0.161  0.137  0.065
 H         -0.006 -0.029  0.642    0.000  0.008 -0.171   -0.004 -0.021  0.420
 H         -0.007 -0.001 -0.158    0.026  0.010  0.595    0.023  0.008  0.489
 H          0.092 -0.073 -0.038   -0.232  0.186  0.091   -0.195  0.156  0.077
 H          0.008  0.048 -0.013   -0.059 -0.320  0.101   -0.046 -0.252  0.079
 TransDip   0.003 -0.038 -0.008    0.039  0.004  0.007   -0.001  0.001 -0.163

 Mode:                34                     35                     36
 Frequency:      3142.50                3143.22                3143.35
 Force Cnst:      6.4106                 6.4121                 6.4127
 Red. Mass:       1.1018                 1.1016                 1.1015
 IR Active:          YES                    YES                    YES
 IR Intens:        0.312                 15.013                 15.395
 Raman Active:       YES                    YES                    YES
               X      Y      Z        X      Y      Z        X      Y      Z
 Si        -0.000  0.000 -0.000   -0.001  0.000  0.000   -0.000 -0.001  0.000
 C          0.029  0.036 -0.002   -0.032 -0.037 -0.003   -0.039 -0.050  0.004
 C         -0.062  0.011  0.000   -0.066  0.011  0.001    0.004 -0.003 -0.005
 C          0.017 -0.046  0.000   -0.016  0.038  0.005    0.023 -0.063  0.002
 H          0.000 -0.000  0.000    0.002 -0.000 -0.000    0.000  0.002 -0.000
 H          0.004  0.006  0.016   -0.006 -0.006  0.024   -0.006 -0.009 -0.034
 H         -0.044 -0.341  0.120    0.042  0.329 -0.116    0.060  0.473 -0.166
 H         -0.309 -0.103 -0.114    0.346  0.114  0.126    0.412  0.136  0.151
 H          0.418  0.174  0.158    0.442  0.185  0.167   -0.008 -0.003 -0.004
 H          0.341 -0.303 -0.159    0.362 -0.323 -0.169   -0.044  0.040  0.020
 H         -0.010  0.002 -0.002   -0.011  0.002 -0.005    0.000 -0.002  0.039
 H          0.003 -0.007 -0.002   -0.004  0.006 -0.043    0.003 -0.011 -0.016
 H         -0.277  0.212  0.122    0.256 -0.195 -0.111   -0.374  0.285  0.164
 H          0.071  0.345 -0.123   -0.054 -0.261  0.094    0.100  0.481 -0.171
 TransDip  -0.018  0.001 -0.001   -0.123  0.013  0.003   -0.013 -0.125  0.001

 STANDARD THERMODYNAMIC QUANTITIES AT   298.15 K  AND     1.00 ATM

   This Molecule has  0 Imaginary Frequencies
   Zero point vibrational energy:       74.293 kcal/mol

   Atom    1 Element Si Has Mass   27.97693
   Atom    2 Element C  Has Mass   12.00000
   Atom    3 Element C  Has Mass   12.00000
   Atom    4 Element C  Has Mass   12.00000
   Atom    5 Element H  Has Mass    1.00783
   Atom    6 Element H  Has Mass    1.00783
   Atom    7 Element H  Has Mass    1.00783
   Atom    8 Element H  Has Mass    1.00783
   Atom    9 Element H  Has Mass    1.00783
   Atom   10 Element H  Has Mass    1.00783
   Atom   11 Element H  Has Mass    1.00783
   Atom   12 Element H  Has Mass    1.00783
   Atom   13 Element H  Has Mass    1.00783
   Atom   14 Element H  Has Mass    1.00783
   Molecular Mass:    74.055230 amu
   Principal axes and moments of inertia in amu*Bohr^2:
                             1           2           3
    Eigenvalues --      343.13483   343.25729   580.43912
          X               1.00000     0.00144    -0.00000
          Y               0.00144    -1.00000    -0.00000
          Z               0.00000    -0.00000     1.00000
   Rotational Symmetry Number is   1
   The Molecule is an Asymmetric Top
   Translational Enthalpy:        0.889 kcal/mol
   Rotational Enthalpy:           0.889 kcal/mol
   Vibrational Enthalpy:         77.282 kcal/mol
   gas constant (RT):             0.592 kcal/mol
   Translational Entropy:        38.823  cal/mol.K
   Rotational Entropy:           25.728  cal/mol.K
   Vibrational Entropy:          17.471  cal/mol.K

   Total Enthalpy:               79.652 kcal/mol
   Total Entropy:                82.022  cal/mol.K

   Quasi-RRHO corrections using alpha = 4, and omega = 100 cm^-1
   QRRHO-Vib. Enthalpy:          77.049 kcal/mol
   QRRHO-Vib. Entropy:           17.331  cal/mol.K
   QRRHO-Total Enthalpy:         79.419 kcal/mol
   QRRHO-Total Entropy:          81.882  cal/mol.K
 Total job time:  662.77s(wall), 10537.23s(cpu) 
 Wed Jun  5 15:13:25 2024

        *************************************************************
        *                                                           *
        *  Thank you very much for using Q-Chem.  Have a nice day.  *
        *                                                           *
        *************************************************************


