                  Welcome to Q-Chem
     A Quantum Leap Into The Future Of Chemistry


 Q-Chem 6.2 (devel), Q-Chem, Inc., Pleasanton, CA (2024)

 E. Epifanovsky,  A. T. B. Gilbert,  Xintian Feng,  Joonho Lee,  Yuezhi Mao,  
 N. Mardirossian,  P. Pokhilko,  A. White,  M. Wormit,  M. P. Coons,  
 A. L. Dempwolff,  Zhengting Gan,  D. Hait,  P. R. Horn,  L. D. Jacobson,  
 I. Kaliman,  J. Kussmann,  A. W. Lange,  Ka Un Lao,  D. S. Levine,  Jie Liu,  
 S. C. McKenzie,  A. F. Morrison,  K. D. Nanda,  F. Plasser,  D. R. Rehn,  
 M. L. Vidal,  Zhi-Qiang You,  Ying Zhu,  Huseyin Aksu,  B. Alam,  
 B. Albrecht,  A. Aldossary,  E. Alguire,  J. H. Andersen,  
 J. E. Arias-Martinez,  V. Athavale,  D. Barton,  K. Begam,  A. Behn,  
 N. Bellonzi,  Y. A. Bernard,  E. J. Berquist,  H. Burton,  A. Carreras,  
 K. Carter-Fenk,  Mathew Chow,  Romit Chakraborty,  Chandrima Chakravarty,  
 Junhan Chen,  A. D. Chien,  K. D. Closser,  V. Cofer-Shabica,  L. Cunha,  
 S. Dasgupta,  Jia Deng,  Joseph Dickinson,  M. de Wergifosse,  
 M. Diedenhofen,  Hainam Do,  Wenjie Dou,  S. Ehlert,  Po-Tung Fang,  
 S. Fatehi,  Qingguo Feng,  Jonathan Fetherolf,  T. Friedhoff,  
 Thomas Froitzheim,  Sarai Folkestad,  B. Ganoe,  J. Gayvert,  Qinghui Ge,  
 G. Gidofalvi,  M. Gimferrer,  M. Goldey,  Montgomery Gray,  J. Gomes,  
 C. Gonzalez-Espinoza,  S. Gulania,  A. Gunina,  J. A. Gyamfi,  
 M. W. D. Hanson-Heine,  P. H. P. Harbach,  A. W. Hauser,  M. F. Herbst,  
 M. Hernandez Vera,  M. Hodecker,  Z. C. Holden,  S. Houck,  Xunkun Huang,  
 Kerwin Hui,  B. C. Huynh,  K. Ikeda,  M. Ivanov,  Nayanthara K. Jayadev,  
 Hyunjun Ji,  Zuxin Jin,  Hanjie Jiang,  Subrata Jana,  B. Kaduk,  
 S. Kaehler,  R. Kang,  K. Khistyaev,  Jaehoon Kim,  Yongbin Kim,  
 P. Klunzinger,  Z. Koczor-Benda,  Joong Hoon Koh,  D. Kosenkov,  
 Saikiran Kotaru,  L. Koulias,  T. Kowalczyk,  C. M. Krauter,  K. Kue,  
 A. Kunitsa,  T. Kus,  A. Landau,  K. V. Lawler,  D. Lefrancois,  S. Lehtola,  
 Rain Li,  Shaozhi Li,  Tao E. Li,  Yi-Pei Li,  Jiashu Liang,  M. Liebenthal,  
 Hung-Hsuan Lin,  You-Sheng Lin,  Fenglai Liu,  Kuan-Yu Liu,  Xiao Liu,  
 M. Loipersberger,  A. Luenser,  C. Malbon,  Aniket Mandal,  Manisha,  
 A. Manjanath,  P. Manohar,  E. Mansoor,  S. F. Manzer,  Shan-Ping Mao,  
 A. V. Marenich,  T. Markovich,  S. Mason,  F. Matz,  S. A. Maurer,  
 Samuel May,  Alexandra McIsaac,  P. F. McLaughlin,  M. F. S. J. Menger,  
 J.-M. Mewes,  S. A. Mewes,  P. Morgante,  Mohammad Mostafanejad,  
 Madhubani Mukherjee,  J. W. Mullinax,  Quyen Nguyen,  Avik Kumar Ojha,  
 K. J. Oosterbaan,  Eno Paenurk,  Xiaoliang Pan,  G. Paran,  V. Parravicini,  
 Alexander C. Paul,  Suranjan K. Paul,  F. Pavosevic,  Zheng Pei,  S. Prager,  
 E. I. Proynov,  E. Ramos,  B. Rana,  A. E. Rask,  A. Rettig,  R. M. Richard,  
 F. Rob,  E. Rossomme,  T. Scheele,  M. Scheurer,  M. Schneider,  
 P. E. Schneider,  Tim K. Schramm,  N. Sergueev,  S. M. Sharada,  
 Hengyuan Shen,  W. Skomorowski,  D. W. Small,  C. J. Stein,  
 Alistair J. Sterling,  Yingli Su,  Yu-Chuan Su,  E. J. Sundstrom,  
 J. Talbot,  Zhen Tao,  J. Thirman,  Hung-Yi Tsai,  T. Tsuchimochi,  
 N. M. Tubman,  C. Utku,  S. P. Veccham,  O. Vydrov,  Rahel Weiss,  
 J. Wenzel,  Jonathan Wong,  J. Witte,  H. Wu,  Yanze Wu,  A. Yamada,  
 Chou-Hsun Yang,  Kun Yao,  S. Yeganeh,  S. R. Yost,  Qi Yu,  A. Zech,  
 F. Zeller,  Chongxiao Zhao,  Igor Ying Zhang,  Xing Zhang,  Yu Zhang,  
 D. Zuev,  A. Aspuru-Guzik,  A. T. Bell,  N. A. Besley,  K. B. Bravaya,  
 B. R. Brooks,  D. Casanova,  Jeng-Da Chai,  Hsing-Ta Chen,  S. Coriani,  
 C. J. Cramer,  A. E. DePrince, III,  R. A. DiStasio Jr.,  A. Dreuw,  
 B. D. Dunietz,  T. R. Furlani,  W. A. Goddard III,  S. Grimme,  
 S. Hammes-Schiffer,  T. Head-Gordon,  W. J. Hehre,  Chao-Ping Hsu,  
 T.-C. Jagau,  Yousung Jung,  A. Klamt,  Jing Kong,  D. S. Lambrecht,  
 Xiangyuan Li,  WanZhen Liang,  N. J. Mayhall,  C. W. McCurdy,  J. B. Neaton,  
 T. Neudecker,  C. Ochsenfeld,  J. A. Parkhill,  R. Peverati,  
 V. A. Rassolov,  Haisheng Ren,  Yihan Shao,  L. V. Slipchenko,  
 R. P. Steele,  J. E. Subotnik,  A. J. W. Thom,  A. Tkatchenko,  
 D. G. Truhlar,  T. Van Voorhis,  Fan Wang,  T. A. Wesolowski,  K. B. Whaley,  
 H. L. Woodcock III,  P. M. Zimmerman,  S. Faraji,  P. M. W. Gill,  
 M. Head-Gordon,  J. M. Herbert,  A. I. Krylov

 Contributors to earlier versions of Q-Chem not listed above: 
 R. D. Adamson,  B. Austin,  R. Baer,  J. Baker,  G. J. O. Beran,  
 K. Brandhorst,  S. T. Brown,  E. F. C. Byrd,  Arup K. Chakraborty,  
 G. K. L. Chan,  Chun-Min Chang,  Yunqing Chen,  C.-L. Cheng,  
 Siu Hung Chien,  D. M. Chipman,  D. L. Crittenden,  H. Dachsel,  
 R. J. Doerksen,  A. D. Dutoi,  R. G. Edgar,  J. Fosso-Tande,  
 L. Fusti-Molnar,  D. Ghosh,  A. Ghysels,  A. Golubeva-Zadorozhnaya,  
 J. Gonthier,  M. S. Gordon,  S. R. Gwaltney,  G. Hawkins,  J. E. Herr,  
 A. Heyden,  S. Hirata,  E. G. Hohenstein,  G. Kedziora,  F. J. Keil,  
 C. Kelley,  Jihan Kim,  R. A. King,  R. Z. Khaliullin,  P. P. Korambath,  
 W. Kurlancheek,  A. Laurent,  A. M. Lee,  M. S. Lee,  S. V. Levchenko,  
 Ching Yeh Lin,  D. Liotard,  E. Livshits,  R. C. Lochan,  I. Lotan,  
 L. A. Martinez-Martinez,  P. E. Maslen,  N. Nair,  D. P. O'Neill,  
 D. Neuhauser,  E. Neuscamman,  C. M. Oana,  R. Olivares-Amaya,  R. Olson,  
 T. M. Perrine,  B. Peters,  P. A. Pieniazek,  A. Prociuk,  Y. M. Rhee,  
 J. Ritchie,  M. A. Rohrdanz,  E. Rosta,  N. J. Russ,  H. F. Schaefer III,  
 M. W. Schmidt,  N. E. Schultz,  S. Sharma,  N. Shenvi,  C. D. Sherrill,  
 A. C. Simmonett,  A. Sodt,  T. Stein,  D. Stuck,  K. S. Thanthiriwatte,  
 V. Vanovschi,  L. Vogt,  Tao Wang,  A. Warshel,  M. A. Watson,  
 C. F. Williams,  Q. Wu,  X. Xu,  Jun Yang,  W. Zhang,  Yan Zhao

   Please cite Q-Chem as follows:
  "Software for the frontiers of quantum chemistry:
   An overview of developments in the Q-Chem 5 package"
   J. Chem. Phys. 155, 084801 (2021)
   https://doi.org/10.1063/5.0055522 (open access)

 Q-Chem 6.2.0 for Intel X86 EM64T Linux

 Parts of Q-Chem use Armadillo 9.900.5 (Nocturnal Misbehaviour).
 http://arma.sourceforge.net/

 Q-Chem begins on Wed May 29 16:10:42 2024  

 Host: 
0

     Scratch files written to /data/scratch/water_opt_freq20240529161040//
 Processing $rem in /home/ymao/my_qchem/qchem_ymao_quick_fix/config/preferences:
 Processing $rem in /home/ymao/.qchemrc:

 Checking the input file for inconsistencies... 	...done.

--------------------------------------------------------------
User input:
--------------------------------------------------------------
$molecule
0 1
O    1.37714    0.09749    0.00000   
H    1.75572    -0.34454   0.76773   
H    1.75572    -0.34454   -0.76773  
$end

$rem
JOBTYPE  OPT
GEN_SCFMAN  TRUE
METHOD  WB97X-V
BASIS  DEF2-SVPD
UNRESTRICTED  FALSE
MAX_SCF_CYCLES  2000
THRESH  14
SCF_CONVERGENCE  9
MEM_TOTAL  8000
MEM_STATIC  2000
SYMMETRY  FALSE
SYM_IGNORE  FALSE
SCF_ALGORITHM  DIIS
BASIS_LIN_DEP_THRESH  6
IDERIV  1
XC_GRID  000075000302
NL_GRID  1
FD_MAT_VEC_PROD  FALSE
GEOM_OPT_TOL_GRADIENT  50
GEOM_OPT_TOL_DISPLACEMENT  50
GEOM_OPT_TOL_ENERGY  10
GEOM_OPT_DRIVER  OPTIMIZE
GEOM_OPT_MAX_CYCLES  200
$end

--------------------------------------------------------------
 ----------------------------------------------------------------
             Standard Nuclear Orientation (Angstroms)
    I     Atom           X                Y                Z
 ----------------------------------------------------------------
    1      O       0.0000000000    -0.0000000000     0.1163981679
    2      H      -0.7677300000    -0.0000000000    -0.4655926716
    3      H       0.7677300000    -0.0000000000    -0.4655926716
 ----------------------------------------------------------------
 Molecular Point Group                 C2v   NOp =  4
 Largest Abelian Subgroup              C2v   NOp =  4
 Nuclear Repulsion Energy =           9.13321171 hartrees
 There are        5 alpha and        5 beta electrons
 Requested basis set is def2-SVPD
 There are 17 shells and 39 basis functions

 Total QAlloc Memory Limit   8000 MB
 Mega-Array Size      1956 MB
 MEM_STATIC part      2000 MB

 A cutoff of  1.0D-14 yielded    153 shell pairs
 There are       821 function pairs (       912 Cartesian)
 Smallest overlap matrix eigenvalue = 5.40E-03

 Scale SEOQF with 1.000000e-01/1.000000e-01/1.000000e-01

 Standard Electronic Orientation quadrupole field applied
 Guess from superposition of atomic densities
 Warning:  Energy on first SCF cycle will be non-variational
 SAD guess density has 10.000000 electrons

 -----------------------------------------------------------------------
  General SCF calculation program by
  Eric Jon Sundstrom, Paul Horn, Yuezhi Mao, Dmitri Zuev, Alec White,
  David Stuck, Shaama M.S., Shane Yost, Joonho Lee, David Small,
  Daniel Levine, Susi Lehtola, Hugh Burton, Evgeny Epifanovsky,
  Bang C. Huynh
 -----------------------------------------------------------------------
 Exchange:     0.1670 Hartree-Fock + 1.0000 wB97X-V + LR-HF
 Correlation:  1.0000 wB97X-V
 Using Euler-Maclaurin-Lebedev (75,302) quadrature formula
 Nonlocal Correlation:  VV10 with C = 0.0100 and b = 6.00 and scale = 1.00000
 Grid used for NLC:  SG-1 standard quadrature
 using 8 threads for integral computing
 -------------------------------------------------------
 OpenMP Integral computing Module                
 Release: version 1.0, May 2013, Q-Chem Inc. Pittsburgh 
 -------------------------------------------------------
 A restricted SCF calculation will be
 performed using DIIS
 SCF converges when DIIS error is below 1.0e-09
 ---------------------------------------
  Cycle       Energy         DIIS error
 ---------------------------------------
    1     -76.2430492644      8.03e-02  
    2     -76.2948245884      1.88e-02  
    3     -76.3041723983      1.84e-02  
    4     -76.3492060082      8.25e-04  
    5     -76.3493087222      2.09e-04  
    6     -76.3493191846      3.02e-05  
    7     -76.3493194753      3.19e-06  
    8     -76.3493194825      4.09e-07  
    9     -76.3493194826      6.33e-08  
   10     -76.3493194826      8.44e-09  
   11     -76.3493194826      1.03e-09  
   12     -76.3493194826      1.64e-10  Convergence criterion met
 ---------------------------------------
 SCF time:   CPU 23.03s  wall 6.00s 
 SCF   energy =   -76.34931948
 Total energy =   -76.34931948
 
 --------------------------------------------------------------
             Orbital Energies (a.u.) and Symmetries
 --------------------------------------------------------------
 
 Alpha MOs, Restricted
 -- Occupied --                  
-19.237  -1.132  -0.651  -0.504  -0.432
  1 A1    2 A1    1 B1    3 A1    1 B2                                         
 -- Virtual --                   
  0.076   0.134   0.182   0.183   0.238   0.265   0.306   0.328
  4 A1    2 B1    2 B2    5 A1    3 B1    6 A1    1 A2    7 A1                 
  0.355   0.431   0.435   0.472   0.607   0.622   0.663   0.698
  3 B2    8 A1    4 B1    5 B1    6 B1    9 A1    4 B2   10 A1                 
  0.702   1.008   1.123   1.310   1.325   1.627   1.730   1.768
  2 A2   11 A1    7 B1    5 B2   12 A1    8 B1   13 A1    3 A2                 
  1.923   2.041   2.048   2.354   2.473   3.100   3.163   3.300
  6 B2    9 B1   14 A1   10 B1   15 A1    7 B2    4 A2   16 A1                 
  3.735   4.134
 17 A1   11 B1                                                                 
 
 Beta MOs, Restricted
 -- Occupied --                  
-19.237  -1.132  -0.651  -0.504  -0.432
  1 A1    2 A1    1 B1    3 A1    1 B2                                         
 -- Virtual --                   
  0.076   0.134   0.182   0.183   0.238   0.265   0.306   0.328
  4 A1    2 B1    2 B2    5 A1    3 B1    6 A1    1 A2    7 A1                 
  0.355   0.431   0.435   0.472   0.607   0.622   0.663   0.698
  3 B2    8 A1    4 B1    5 B1    6 B1    9 A1    4 B2   10 A1                 
  0.702   1.008   1.123   1.310   1.325   1.627   1.730   1.768
  2 A2   11 A1    7 B1    5 B2   12 A1    8 B1   13 A1    3 A2                 
  1.923   2.041   2.048   2.354   2.473   3.100   3.163   3.300
  6 B2    9 B1   14 A1   10 B1   15 A1    7 B2    4 A2   16 A1                 
  3.735   4.134
 17 A1   11 B1                                                                 
 --------------------------------------------------------------
 
          Ground-State Mulliken Net Atomic Charges

     Atom                 Charge (a.u.)
  ----------------------------------------
      1 O                    -0.269490
      2 H                     0.134745
      3 H                     0.134745
  ----------------------------------------
  Sum of atomic charges =     0.000000

 -----------------------------------------------------------------
                    Cartesian Multipole Moments
 -----------------------------------------------------------------
    Charge (ESU x 10^10)
                 0.0000
    Dipole Moment (Debye)
         X       0.0000      Y       0.0000      Z      -1.8997
       Tot       1.8997
    Quadrupole Moments (Debye-Ang)
        XX      -4.4570     XY      -0.0000     YY      -7.8180
        XZ      -0.0000     YZ       0.0000     ZZ      -6.5138
    Octopole Moments (Debye-Ang^2)
       XXX       0.0000    XXY       0.0000    XYY       0.0000
       YYY       0.0000    XXZ      -1.3186    XYZ       0.0000
       YYZ      -0.2334    XZZ       0.0000    YZZ       0.0000
       ZZZ      -1.0698
    Hexadecapole Moments (Debye-Ang^3)
      XXXX      -6.7552   XXXY       0.0000   XXYY      -2.7576
      XYYY       0.0000   YYYY      -7.9594   XXXZ       0.0000
      XXYZ       0.0000   XYYZ       0.0000   YYYZ       0.0000
      XXZZ      -2.2296   XYZZ       0.0000   YYZZ      -2.7282
      XZZZ       0.0000   YZZZ       0.0000   ZZZZ      -8.1439
 -----------------------------------------------------------------
 Calculating analytic gradient of the SCF energy
 Gradient of SCF Energy
            1           2           3
    1  -0.0000000  -0.0012014   0.0012014
    2  -0.0000000   0.0000000  -0.0000000
    3   0.0002792  -0.0001396  -0.0001396
 Max gradient component =       1.201E-03
 RMS gradient           =       5.777E-04
 Gradient time:  CPU 3.93 s  wall 1.23 s
 Geometry Optimization Parameters
   NAtoms,    NIC,     NZ,  NCons,   NDum,   NFix, NCnnct, MaxDiis
        3       9       0       0       0       0       0       0


** GEOMETRY OPTIMIZATION IN DELOCALIZED INTERNAL COORDINATES **
   Searching for a Minimum

   Optimization Cycle:   1

                       Coordinates (Angstroms)
     ATOM                X               Y               Z
      1  O         0.0000000000    0.0000000000    0.1163981679
      2  H        -0.7677300000    0.0000000000   -0.4655926716
      3  H         0.7677300000    0.0000000000   -0.4655926716
   Point Group: c2v   Number of degrees of freedom:     2


   Energy is    -76.349319483


 Attempting to generate delocalized internal coordinates
 Initial Hessian constructed with Jon Baker's OPTIMIZE code

  2 Hessian modes will be used to form the next step
  Hessian Eigenvalues:
     0.160000    0.547503

 Minimum search - taking simple RFO step
 Searching for Lamda that Minimizes Along All modes
 Value Taken    Lamda =  -0.00001179
 Step Taken.  Stepsize is  0.007492

                             Maximum     Tolerance    Cnvgd?
         Gradient           0.001791      0.000050      NO
         Displacement       0.007157      0.000050      NO
         Energy change     *********      0.000000      NO


 New Cartesian Coordinates Obtained by Inverse Iteration

 Displacement from previous Coordinates is:  0.008233
 ----------------------------------------------------------------
             Standard Nuclear Orientation (Angstroms)
    I     Atom           X                Y                Z
 ----------------------------------------------------------------
    1      O       0.0000000000     0.0000000000     0.1177777134
    2      H      -0.7648904724     0.0000000000    -0.4662824443
    3      H       0.7648904724     0.0000000000    -0.4662824443
 ----------------------------------------------------------------
 Molecular Point Group                 C2v   NOp =  4
 Largest Abelian Subgroup              C2v   NOp =  4
 Nuclear Repulsion Energy =           9.14368585 hartrees
 There are        5 alpha and        5 beta electrons
 Applying Cartesian multipole field
    Component          Value
    ---------          -----
     (2,0,0)        1.00000E-11
     (0,2,0)        2.00000E-11
     (0,0,2)       -3.00000E-11
 Requested basis set is def2-SVPD
 There are 17 shells and 39 basis functions
 A cutoff of  1.0D-14 yielded    153 shell pairs
 There are       821 function pairs (       912 Cartesian)
 Smallest overlap matrix eigenvalue = 5.34E-03
 Guess MOs from SCF MO coefficient file

 -----------------------------------------------------------------------
  General SCF calculation program by
  Eric Jon Sundstrom, Paul Horn, Yuezhi Mao, Dmitri Zuev, Alec White,
  David Stuck, Shaama M.S., Shane Yost, Joonho Lee, David Small,
  Daniel Levine, Susi Lehtola, Hugh Burton, Evgeny Epifanovsky,
  Bang C. Huynh
 -----------------------------------------------------------------------
 Exchange:     0.1670 Hartree-Fock + 1.0000 wB97X-V + LR-HF
 Correlation:  1.0000 wB97X-V
 Using Euler-Maclaurin-Lebedev (75,302) quadrature formula
 Nonlocal Correlation:  VV10 with C = 0.0100 and b = 6.00 and scale = 1.00000
 Grid used for NLC:  SG-1 standard quadrature
 A restricted SCF calculation will be
 performed using DIIS
 SCF converges when DIIS error is below 1.0e-09
 ---------------------------------------
  Cycle       Energy         DIIS error
 ---------------------------------------
    1     -76.3493213996      1.39e-04  
    2     -76.3493246979      2.95e-05  
    3     -76.3493247681      2.68e-05  
    4     -76.3493248651      1.80e-06  
    5     -76.3493248662      2.68e-07  
    6     -76.3493248663      5.36e-08  
    7     -76.3493248663      6.24e-09  
    8     -76.3493248663      8.69e-10  Convergence criterion met
 ---------------------------------------
 SCF time:   CPU 14.53s  wall 3.00s 
 SCF   energy =   -76.34932487
 Total energy =   -76.34932487
 
 --------------------------------------------------------------
             Orbital Energies (a.u.) and Symmetries
 --------------------------------------------------------------
 
 Alpha MOs, Restricted
 -- Occupied --                  
-19.237  -1.133  -0.650  -0.505  -0.432
  1 A1    2 A1    1 B1    3 A1    1 B2                                         
 -- Virtual --                   
  0.076   0.134   0.182   0.183   0.238   0.266   0.306   0.328
  4 A1    2 B1    2 B2    5 A1    3 B1    6 A1    1 A2    7 A1                 
  0.355   0.431   0.435   0.472   0.607   0.622   0.664   0.699
  3 B2    8 A1    4 B1    5 B1    6 B1    9 A1    4 B2   10 A1                 
  0.702   1.008   1.123   1.310   1.325   1.627   1.729   1.768
  2 A2   11 A1    7 B1    5 B2   12 A1    8 B1   13 A1    3 A2                 
  1.923   2.044   2.046   2.355   2.474   3.102   3.162   3.303
  6 B2    9 B1   14 A1   10 B1   15 A1    7 B2    4 A2   16 A1                 
  3.733   4.138
 17 A1   11 B1                                                                 
 
 Beta MOs, Restricted
 -- Occupied --                  
-19.237  -1.133  -0.650  -0.505  -0.432
  1 A1    2 A1    1 B1    3 A1    1 B2                                         
 -- Virtual --                   
  0.076   0.134   0.182   0.183   0.238   0.266   0.306   0.328
  4 A1    2 B1    2 B2    5 A1    3 B1    6 A1    1 A2    7 A1                 
  0.355   0.431   0.435   0.472   0.607   0.622   0.664   0.699
  3 B2    8 A1    4 B1    5 B1    6 B1    9 A1    4 B2   10 A1                 
  0.702   1.008   1.123   1.310   1.325   1.627   1.729   1.768
  2 A2   11 A1    7 B1    5 B2   12 A1    8 B1   13 A1    3 A2                 
  1.923   2.044   2.046   2.355   2.474   3.102   3.162   3.303
  6 B2    9 B1   14 A1   10 B1   15 A1    7 B2    4 A2   16 A1                 
  3.733   4.138
 17 A1   11 B1                                                                 
 --------------------------------------------------------------
 
          Ground-State Mulliken Net Atomic Charges

     Atom                 Charge (a.u.)
  ----------------------------------------
      1 O                    -0.266771
      2 H                     0.133385
      3 H                     0.133385
  ----------------------------------------
  Sum of atomic charges =     0.000000

 -----------------------------------------------------------------
                    Cartesian Multipole Moments
 -----------------------------------------------------------------
    Charge (ESU x 10^10)
                 0.0000
    Dipole Moment (Debye)
         X       0.0000      Y       0.0000      Z      -1.9053
       Tot       1.9053
    Quadrupole Moments (Debye-Ang)
        XX      -4.4762     XY       0.0000     YY      -7.8147
        XZ      -0.0000     YZ       0.0000     ZZ      -6.5045
    Octopole Moments (Debye-Ang^2)
       XXX      -0.0000    XXY      -0.0000    XYY      -0.0000
       YYY       0.0000    XXZ      -1.3190    XYZ       0.0000
       YYZ      -0.2424    XZZ      -0.0000    YZZ       0.0000
       ZZZ      -1.0969
    Hexadecapole Moments (Debye-Ang^3)
      XXXX      -6.7596   XXXY       0.0000   XXYY      -2.7520
      XYYY       0.0000   YYYY      -7.9530   XXXZ       0.0000
      XXYZ       0.0000   XYYZ       0.0000   YYYZ       0.0000
      XXZZ      -2.2268   XYZZ       0.0000   YYZZ      -2.7263
      XZZZ       0.0000   YZZZ       0.0000   ZZZZ      -8.1380
 -----------------------------------------------------------------
 Calculating analytic gradient of the SCF energy
 Gradient of SCF Energy
            1           2           3
    1  -0.0000000   0.0001698  -0.0001698
    2  -0.0000000  -0.0000000   0.0000000
    3  -0.0002013   0.0001007   0.0001007
 Max gradient component =       2.013E-04
 RMS gradient           =       1.147E-04
 Gradient time:  CPU 4.30 s  wall 0.72 s
 Geometry Optimization Parameters
   NAtoms,    NIC,     NZ,  NCons,   NDum,   NFix, NCnnct, MaxDiis
        3       9       0       0       0       0       0       0

 Cartesian Hessian Update
 Hessian updated using BFGS update


** GEOMETRY OPTIMIZATION IN DELOCALIZED INTERNAL COORDINATES **
   Searching for a Minimum

   Optimization Cycle:   2

                       Coordinates (Angstroms)
     ATOM                X               Y               Z
      1  O         0.0000000000    0.0000000000    0.1177777134
      2  H        -0.7648904724    0.0000000000   -0.4662824443
      3  H         0.7648904724    0.0000000000   -0.4662824443
   Point Group: c2v   Number of degrees of freedom:     2


   Energy is    -76.349324866

 Hessian updated using BFGS update

  2 Hessian modes will be used to form the next step
  Hessian Eigenvalues:
     0.158078    0.603048

 Minimum search - taking simple RFO step
 Searching for Lamda that Minimizes Along All modes
 Value Taken    Lamda =  -0.00000013
 Step Taken.  Stepsize is  0.000500

                             Maximum     Tolerance    Cnvgd?
         Gradient           0.000205      0.000050      NO
         Displacement       0.000446      0.000050      NO
         Energy change     -0.000005      0.000000      NO


 New Cartesian Coordinates Obtained by Inverse Iteration

 Displacement from previous Coordinates is:  0.000526
 ----------------------------------------------------------------
             Standard Nuclear Orientation (Angstroms)
    I     Atom           X                Y                Z
 ----------------------------------------------------------------
    1      O       0.0000000000     0.0000000000     0.1177926773
    2      H      -0.7650869966     0.0000000000    -0.4662899263
    3      H       0.7650869966     0.0000000000    -0.4662899263
 ----------------------------------------------------------------
 Molecular Point Group                 C2v   NOp =  4
 Largest Abelian Subgroup              C2v   NOp =  4
 Nuclear Repulsion Energy =           9.14204482 hartrees
 There are        5 alpha and        5 beta electrons
 Applying Cartesian multipole field
    Component          Value
    ---------          -----
     (2,0,0)        1.00000E-11
     (0,2,0)        2.00000E-11
     (0,0,2)       -3.00000E-11
 Requested basis set is def2-SVPD
 There are 17 shells and 39 basis functions
 A cutoff of  1.0D-14 yielded    153 shell pairs
 There are       821 function pairs (       912 Cartesian)
 Smallest overlap matrix eigenvalue = 5.34E-03
 Guess MOs from SCF MO coefficient file

 -----------------------------------------------------------------------
  General SCF calculation program by
  Eric Jon Sundstrom, Paul Horn, Yuezhi Mao, Dmitri Zuev, Alec White,
  David Stuck, Shaama M.S., Shane Yost, Joonho Lee, David Small,
  Daniel Levine, Susi Lehtola, Hugh Burton, Evgeny Epifanovsky,
  Bang C. Huynh
 -----------------------------------------------------------------------
 Exchange:     0.1670 Hartree-Fock + 1.0000 wB97X-V + LR-HF
 Correlation:  1.0000 wB97X-V
 Using Euler-Maclaurin-Lebedev (75,302) quadrature formula
 Nonlocal Correlation:  VV10 with C = 0.0100 and b = 6.00 and scale = 1.00000
 Grid used for NLC:  SG-1 standard quadrature
 A restricted SCF calculation will be
 performed using DIIS
 SCF converges when DIIS error is below 1.0e-09
 ---------------------------------------
  Cycle       Energy         DIIS error
 ---------------------------------------
    1     -76.3493249169      1.11e-05  
    2     -76.3493249355      3.39e-06  
    3     -76.3493249362      2.62e-06  
    4     -76.3493249372      2.25e-07  
    5     -76.3493249372      4.78e-08  
    6     -76.3493249372      8.77e-09  
    7     -76.3493249372      7.90e-10  Convergence criterion met
 ---------------------------------------
 SCF time:   CPU 11.74s  wall 2.00s 
 SCF   energy =   -76.34932494
 Total energy =   -76.34932494
 
 --------------------------------------------------------------
             Orbital Energies (a.u.) and Symmetries
 --------------------------------------------------------------
 
 Alpha MOs, Restricted
 -- Occupied --                  
-19.237  -1.132  -0.650  -0.505  -0.432
  1 A1    2 A1    1 B1    3 A1    1 B2                                         
 -- Virtual --                   
  0.076   0.134   0.182   0.183   0.238   0.266   0.306   0.328
  4 A1    2 B1    2 B2    5 A1    3 B1    6 A1    1 A2    7 A1                 
  0.355   0.431   0.435   0.472   0.607   0.622   0.664   0.699
  3 B2    8 A1    4 B1    5 B1    6 B1    9 A1    4 B2   10 A1                 
  0.702   1.008   1.123   1.310   1.325   1.627   1.729   1.767
  2 A2   11 A1    7 B1    5 B2   12 A1    8 B1   13 A1    3 A2                 
  1.923   2.044   2.047   2.355   2.474   3.102   3.162   3.303
  6 B2    9 B1   14 A1   10 B1   15 A1    7 B2    4 A2   16 A1                 
  3.733   4.138
 17 A1   11 B1                                                                 
 
 Beta MOs, Restricted
 -- Occupied --                  
-19.237  -1.132  -0.650  -0.505  -0.432
  1 A1    2 A1    1 B1    3 A1    1 B2                                         
 -- Virtual --                   
  0.076   0.134   0.182   0.183   0.238   0.266   0.306   0.328
  4 A1    2 B1    2 B2    5 A1    3 B1    6 A1    1 A2    7 A1                 
  0.355   0.431   0.435   0.472   0.607   0.622   0.664   0.699
  3 B2    8 A1    4 B1    5 B1    6 B1    9 A1    4 B2   10 A1                 
  0.702   1.008   1.123   1.310   1.325   1.627   1.729   1.767
  2 A2   11 A1    7 B1    5 B2   12 A1    8 B1   13 A1    3 A2                 
  1.923   2.044   2.047   2.355   2.474   3.102   3.162   3.303
  6 B2    9 B1   14 A1   10 B1   15 A1    7 B2    4 A2   16 A1                 
  3.733   4.138
 17 A1   11 B1                                                                 
 --------------------------------------------------------------
 
          Ground-State Mulliken Net Atomic Charges

     Atom                 Charge (a.u.)
  ----------------------------------------
      1 O                    -0.267127
      2 H                     0.133563
      3 H                     0.133563
  ----------------------------------------
  Sum of atomic charges =     0.000000

 -----------------------------------------------------------------
                    Cartesian Multipole Moments
 -----------------------------------------------------------------
    Charge (ESU x 10^10)
                 0.0000
    Dipole Moment (Debye)
         X       0.0000      Y       0.0000      Z      -1.9052
       Tot       1.9052
    Quadrupole Moments (Debye-Ang)
        XX      -4.4753     XY      -0.0000     YY      -7.8152
        XZ      -0.0000     YZ       0.0000     ZZ      -6.5051
    Octopole Moments (Debye-Ang^2)
       XXX       0.0000    XXY       0.0000    XYY       0.0000
       YYY      -0.0000    XXZ      -1.3196    XYZ       0.0000
       YYZ      -0.2424    XZZ       0.0000    YZZ      -0.0000
       ZZZ      -1.0966
    Hexadecapole Moments (Debye-Ang^3)
      XXXX      -6.7605   XXXY      -0.0000   XXYY      -2.7527
      XYYY      -0.0000   YYYY      -7.9538   XXXZ      -0.0000
      XXYZ      -0.0000   XYYZ      -0.0000   YYYZ      -0.0000
      XXZZ      -2.2272   XYZZ      -0.0000   YYZZ      -2.7268
      XZZZ      -0.0000   YZZZ      -0.0000   ZZZZ      -8.1395
 -----------------------------------------------------------------
 Calculating analytic gradient of the SCF energy
 Gradient of SCF Energy
            1           2           3
    1  -0.0000000   0.0000083  -0.0000083
    2   0.0000000  -0.0000000  -0.0000000
    3  -0.0000240   0.0000120   0.0000120
 Max gradient component =       2.397E-05
 RMS gradient           =       1.054E-05
 Gradient time:  CPU 4.40 s  wall 0.93 s
 Geometry Optimization Parameters
   NAtoms,    NIC,     NZ,  NCons,   NDum,   NFix, NCnnct, MaxDiis
        3       9       0       0       0       0       0       0

 Cartesian Hessian Update
 Hessian updated using BFGS update


** GEOMETRY OPTIMIZATION IN DELOCALIZED INTERNAL COORDINATES **
   Searching for a Minimum

   Optimization Cycle:   3

                       Coordinates (Angstroms)
     ATOM                X               Y               Z
      1  O         0.0000000000    0.0000000000    0.1177926773
      2  H        -0.7650869966    0.0000000000   -0.4662899263
      3  H         0.7650869966    0.0000000000   -0.4662899263
   Point Group: c2v   Number of degrees of freedom:     2


   Energy is    -76.349324937

 Hessian updated using BFGS update

  2 Hessian modes will be used to form the next step
  Hessian Eigenvalues:
     0.162591    0.554964

 Minimum search - taking simple RFO step
 Searching for Lamda that Minimizes Along All modes
 Value Taken    Lamda =  -0.00000000
 Step Taken.  Stepsize is  0.000069

                             Maximum     Tolerance    Cnvgd?
         Gradient           0.000020      0.000050     YES
         Displacement       0.000066      0.000050      NO
         Energy change     -0.000000      0.000000     YES


                       Distance Matrix (Angstroms)
             O (  1)   H (  2)
   H (  2)  0.962554
   H (  3)  0.962554  1.530174
 
 Final energy is   -76.3493249372013     


 ******************************
 **  OPTIMIZATION CONVERGED  **
 ******************************

                       Coordinates (Angstroms)
     ATOM                X               Y               Z
      1  O         0.0000000000    0.0000000000    0.1177926773
      2  H        -0.7650869966    0.0000000000   -0.4662899263
      3  H         0.7650869966    0.0000000000   -0.4662899263

Z-matrix Print:
$molecule
0 1
O 
H  1 0.962554
H  1 0.962554 2 105.282334
$end

 
 --------------------------------------------------------------
             Orbital Energies (a.u.) and Symmetries
 --------------------------------------------------------------
 
 Alpha MOs, Restricted
 -- Occupied --                  
-19.237  -1.132  -0.650  -0.505  -0.432
  1 A1    2 A1    1 B1    3 A1    1 B2                                         
 -- Virtual --                   
  0.076   0.134   0.182   0.183   0.238   0.266   0.306   0.328
  4 A1    2 B1    2 B2    5 A1    3 B1    6 A1    1 A2    7 A1                 
  0.355   0.431   0.435   0.472   0.607   0.622   0.664   0.699
  3 B2    8 A1    4 B1    5 B1    6 B1    9 A1    4 B2   10 A1                 
  0.702   1.008   1.123   1.310   1.325   1.627   1.729   1.767
  2 A2   11 A1    7 B1    5 B2   12 A1    8 B1   13 A1    3 A2                 
  1.923   2.044   2.047   2.355   2.474   3.102   3.162   3.303
  6 B2    9 B1   14 A1   10 B1   15 A1    7 B2    4 A2   16 A1                 
  3.733   4.138
 17 A1   11 B1                                                                 
 
 Beta MOs, Restricted
 -- Occupied --                  
-19.237  -1.132  -0.650  -0.505  -0.432
  1 A1    2 A1    1 B1    3 A1    1 B2                                         
 -- Virtual --                   
  0.076   0.134   0.182   0.183   0.238   0.266   0.306   0.328
  4 A1    2 B1    2 B2    5 A1    3 B1    6 A1    1 A2    7 A1                 
  0.355   0.431   0.435   0.472   0.607   0.622   0.664   0.699
  3 B2    8 A1    4 B1    5 B1    6 B1    9 A1    4 B2   10 A1                 
  0.702   1.008   1.123   1.310   1.325   1.627   1.729   1.767
  2 A2   11 A1    7 B1    5 B2   12 A1    8 B1   13 A1    3 A2                 
  1.923   2.044   2.047   2.355   2.474   3.102   3.162   3.303
  6 B2    9 B1   14 A1   10 B1   15 A1    7 B2    4 A2   16 A1                 
  3.733   4.138
 17 A1   11 B1                                                                 
 --------------------------------------------------------------
 
          Ground-State Mulliken Net Atomic Charges

     Atom                 Charge (a.u.)
  ----------------------------------------
      1 O                    -0.267127
      2 H                     0.133563
      3 H                     0.133563
  ----------------------------------------
  Sum of atomic charges =     0.000000

 -----------------------------------------------------------------
                    Cartesian Multipole Moments
 -----------------------------------------------------------------
    Charge (ESU x 10^10)
                 0.0000
    Dipole Moment (Debye)
         X       0.0000      Y       0.0000      Z      -1.9052
       Tot       1.9052
    Quadrupole Moments (Debye-Ang)
        XX      -4.4753     XY      -0.0000     YY      -7.8152
        XZ      -0.0000     YZ       0.0000     ZZ      -6.5051
    Octopole Moments (Debye-Ang^2)
       XXX       0.0000    XXY       0.0000    XYY       0.0000
       YYY      -0.0000    XXZ      -1.3196    XYZ       0.0000
       YYZ      -0.2424    XZZ       0.0000    YZZ      -0.0000
       ZZZ      -1.0966
    Hexadecapole Moments (Debye-Ang^3)
      XXXX      -6.7605   XXXY      -0.0000   XXYY      -2.7527
      XYYY      -0.0000   YYYY      -7.9538   XXXZ      -0.0000
      XXYZ      -0.0000   XYYZ      -0.0000   YYYZ      -0.0000
      XXZZ      -2.2272   XYZZ      -0.0000   YYZZ      -2.7268
      XZZZ      -0.0000   YZZZ      -0.0000   ZZZZ      -8.1395
 -----------------------------------------------------------------
 Total job time:  14.79s(wall), 65.86s(cpu) 
 Wed May 29 16:10:57 2024

        *************************************************************
        *                                                           *
        *  Thank you very much for using Q-Chem.  Have a nice day.  *
        *                                                           *
        *************************************************************


 
User input: 2 of 2 
 
                  Welcome to Q-Chem
     A Quantum Leap Into The Future Of Chemistry


 Q-Chem 6.2 (devel), Q-Chem, Inc., Pleasanton, CA (2024)

 E. Epifanovsky,  A. T. B. Gilbert,  Xintian Feng,  Joonho Lee,  Yuezhi Mao,  
 N. Mardirossian,  P. Pokhilko,  A. White,  M. Wormit,  M. P. Coons,  
 A. L. Dempwolff,  Zhengting Gan,  D. Hait,  P. R. Horn,  L. D. Jacobson,  
 I. Kaliman,  J. Kussmann,  A. W. Lange,  Ka Un Lao,  D. S. Levine,  Jie Liu,  
 S. C. McKenzie,  A. F. Morrison,  K. D. Nanda,  F. Plasser,  D. R. Rehn,  
 M. L. Vidal,  Zhi-Qiang You,  Ying Zhu,  Huseyin Aksu,  B. Alam,  
 B. Albrecht,  A. Aldossary,  E. Alguire,  J. H. Andersen,  
 J. E. Arias-Martinez,  V. Athavale,  D. Barton,  K. Begam,  A. Behn,  
 N. Bellonzi,  Y. A. Bernard,  E. J. Berquist,  H. Burton,  A. Carreras,  
 K. Carter-Fenk,  Mathew Chow,  Romit Chakraborty,  Chandrima Chakravarty,  
 Junhan Chen,  A. D. Chien,  K. D. Closser,  V. Cofer-Shabica,  L. Cunha,  
 S. Dasgupta,  Jia Deng,  Joseph Dickinson,  M. de Wergifosse,  
 M. Diedenhofen,  Hainam Do,  Wenjie Dou,  S. Ehlert,  Po-Tung Fang,  
 S. Fatehi,  Qingguo Feng,  Jonathan Fetherolf,  T. Friedhoff,  
 Thomas Froitzheim,  Sarai Folkestad,  B. Ganoe,  J. Gayvert,  Qinghui Ge,  
 G. Gidofalvi,  M. Gimferrer,  M. Goldey,  Montgomery Gray,  J. Gomes,  
 C. Gonzalez-Espinoza,  S. Gulania,  A. Gunina,  J. A. Gyamfi,  
 M. W. D. Hanson-Heine,  P. H. P. Harbach,  A. W. Hauser,  M. F. Herbst,  
 M. Hernandez Vera,  M. Hodecker,  Z. C. Holden,  S. Houck,  Xunkun Huang,  
 Kerwin Hui,  B. C. Huynh,  K. Ikeda,  M. Ivanov,  Nayanthara K. Jayadev,  
 Hyunjun Ji,  Zuxin Jin,  Hanjie Jiang,  Subrata Jana,  B. Kaduk,  
 S. Kaehler,  R. Kang,  K. Khistyaev,  Jaehoon Kim,  Yongbin Kim,  
 P. Klunzinger,  Z. Koczor-Benda,  Joong Hoon Koh,  D. Kosenkov,  
 Saikiran Kotaru,  L. Koulias,  T. Kowalczyk,  C. M. Krauter,  K. Kue,  
 A. Kunitsa,  T. Kus,  A. Landau,  K. V. Lawler,  D. Lefrancois,  S. Lehtola,  
 Rain Li,  Shaozhi Li,  Tao E. Li,  Yi-Pei Li,  Jiashu Liang,  M. Liebenthal,  
 Hung-Hsuan Lin,  You-Sheng Lin,  Fenglai Liu,  Kuan-Yu Liu,  Xiao Liu,  
 M. Loipersberger,  A. Luenser,  C. Malbon,  Aniket Mandal,  Manisha,  
 A. Manjanath,  P. Manohar,  E. Mansoor,  S. F. Manzer,  Shan-Ping Mao,  
 A. V. Marenich,  T. Markovich,  S. Mason,  F. Matz,  S. A. Maurer,  
 Samuel May,  Alexandra McIsaac,  P. F. McLaughlin,  M. F. S. J. Menger,  
 J.-M. Mewes,  S. A. Mewes,  P. Morgante,  Mohammad Mostafanejad,  
 Madhubani Mukherjee,  J. W. Mullinax,  Quyen Nguyen,  Avik Kumar Ojha,  
 K. J. Oosterbaan,  Eno Paenurk,  Xiaoliang Pan,  G. Paran,  V. Parravicini,  
 Alexander C. Paul,  Suranjan K. Paul,  F. Pavosevic,  Zheng Pei,  S. Prager,  
 E. I. Proynov,  E. Ramos,  B. Rana,  A. E. Rask,  A. Rettig,  R. M. Richard,  
 F. Rob,  E. Rossomme,  T. Scheele,  M. Scheurer,  M. Schneider,  
 P. E. Schneider,  Tim K. Schramm,  N. Sergueev,  S. M. Sharada,  
 Hengyuan Shen,  W. Skomorowski,  D. W. Small,  C. J. Stein,  
 Alistair J. Sterling,  Yingli Su,  Yu-Chuan Su,  E. J. Sundstrom,  
 J. Talbot,  Zhen Tao,  J. Thirman,  Hung-Yi Tsai,  T. Tsuchimochi,  
 N. M. Tubman,  C. Utku,  S. P. Veccham,  O. Vydrov,  Rahel Weiss,  
 J. Wenzel,  Jonathan Wong,  J. Witte,  H. Wu,  Yanze Wu,  A. Yamada,  
 Chou-Hsun Yang,  Kun Yao,  S. Yeganeh,  S. R. Yost,  Qi Yu,  A. Zech,  
 F. Zeller,  Chongxiao Zhao,  Igor Ying Zhang,  Xing Zhang,  Yu Zhang,  
 D. Zuev,  A. Aspuru-Guzik,  A. T. Bell,  N. A. Besley,  K. B. Bravaya,  
 B. R. Brooks,  D. Casanova,  Jeng-Da Chai,  Hsing-Ta Chen,  S. Coriani,  
 C. J. Cramer,  A. E. DePrince, III,  R. A. DiStasio Jr.,  A. Dreuw,  
 B. D. Dunietz,  T. R. Furlani,  W. A. Goddard III,  S. Grimme,  
 S. Hammes-Schiffer,  T. Head-Gordon,  W. J. Hehre,  Chao-Ping Hsu,  
 T.-C. Jagau,  Yousung Jung,  A. Klamt,  Jing Kong,  D. S. Lambrecht,  
 Xiangyuan Li,  WanZhen Liang,  N. J. Mayhall,  C. W. McCurdy,  J. B. Neaton,  
 T. Neudecker,  C. Ochsenfeld,  J. A. Parkhill,  R. Peverati,  
 V. A. Rassolov,  Haisheng Ren,  Yihan Shao,  L. V. Slipchenko,  
 R. P. Steele,  J. E. Subotnik,  A. J. W. Thom,  A. Tkatchenko,  
 D. G. Truhlar,  T. Van Voorhis,  Fan Wang,  T. A. Wesolowski,  K. B. Whaley,  
 H. L. Woodcock III,  P. M. Zimmerman,  S. Faraji,  P. M. W. Gill,  
 M. Head-Gordon,  J. M. Herbert,  A. I. Krylov

 Contributors to earlier versions of Q-Chem not listed above: 
 R. D. Adamson,  B. Austin,  R. Baer,  J. Baker,  G. J. O. Beran,  
 K. Brandhorst,  S. T. Brown,  E. F. C. Byrd,  Arup K. Chakraborty,  
 G. K. L. Chan,  Chun-Min Chang,  Yunqing Chen,  C.-L. Cheng,  
 Siu Hung Chien,  D. M. Chipman,  D. L. Crittenden,  H. Dachsel,  
 R. J. Doerksen,  A. D. Dutoi,  R. G. Edgar,  J. Fosso-Tande,  
 L. Fusti-Molnar,  D. Ghosh,  A. Ghysels,  A. Golubeva-Zadorozhnaya,  
 J. Gonthier,  M. S. Gordon,  S. R. Gwaltney,  G. Hawkins,  J. E. Herr,  
 A. Heyden,  S. Hirata,  E. G. Hohenstein,  G. Kedziora,  F. J. Keil,  
 C. Kelley,  Jihan Kim,  R. A. King,  R. Z. Khaliullin,  P. P. Korambath,  
 W. Kurlancheek,  A. Laurent,  A. M. Lee,  M. S. Lee,  S. V. Levchenko,  
 Ching Yeh Lin,  D. Liotard,  E. Livshits,  R. C. Lochan,  I. Lotan,  
 L. A. Martinez-Martinez,  P. E. Maslen,  N. Nair,  D. P. O'Neill,  
 D. Neuhauser,  E. Neuscamman,  C. M. Oana,  R. Olivares-Amaya,  R. Olson,  
 T. M. Perrine,  B. Peters,  P. A. Pieniazek,  A. Prociuk,  Y. M. Rhee,  
 J. Ritchie,  M. A. Rohrdanz,  E. Rosta,  N. J. Russ,  H. F. Schaefer III,  
 M. W. Schmidt,  N. E. Schultz,  S. Sharma,  N. Shenvi,  C. D. Sherrill,  
 A. C. Simmonett,  A. Sodt,  T. Stein,  D. Stuck,  K. S. Thanthiriwatte,  
 V. Vanovschi,  L. Vogt,  Tao Wang,  A. Warshel,  M. A. Watson,  
 C. F. Williams,  Q. Wu,  X. Xu,  Jun Yang,  W. Zhang,  Yan Zhao

   Please cite Q-Chem as follows:
  "Software for the frontiers of quantum chemistry:
   An overview of developments in the Q-Chem 5 package"
   J. Chem. Phys. 155, 084801 (2021)
   https://doi.org/10.1063/5.0055522 (open access)

 Q-Chem 6.2.0 for Intel X86 EM64T Linux

 Parts of Q-Chem use Armadillo 9.900.5 (Nocturnal Misbehaviour).
 http://arma.sourceforge.net/

 Q-Chem begins on Wed May 29 16:10:58 2024  

 Host: 
0

     Scratch files written to /data/scratch/water_opt_freq20240529161040//
 Processing $rem in /home/ymao/my_qchem/qchem_ymao_quick_fix/config/preferences:
 Processing $rem in /home/ymao/.qchemrc:

 Checking the input file for inconsistencies... 	...done.

--------------------------------------------------------------
User input:
--------------------------------------------------------------

$molecule
read
$end

$rem
JOBTYPE  FREQ
GEN_SCFMAN  TRUE
METHOD  WB97X-V
BASIS  DEF2-SVPD
UNRESTRICTED  FALSE
MAX_SCF_CYCLES  2000
THRESH  14
SCF_CONVERGENCE  9
MEM_TOTAL  8000
MEM_STATIC  2000
SYMMETRY  FALSE
SYM_IGNORE  FALSE
SCF_ALGORITHM  DIIS
BASIS_LIN_DEP_THRESH  6
IDERIV  1
XC_GRID  000075000302
NL_GRID  1
FD_MAT_VEC_PROD  FALSE
GEOM_OPT_TOL_GRADIENT  50
GEOM_OPT_TOL_DISPLACEMENT  50
GEOM_OPT_TOL_ENERGY  10
GEOM_OPT_DRIVER  OPTIMIZE
GEOM_OPT_MAX_CYCLES  200
$end
--------------------------------------------------------------
 ----------------------------------------------------------------
             Standard Nuclear Orientation (Angstroms)
    I     Atom           X                Y                Z
 ----------------------------------------------------------------
    1      O       0.0000000000     0.0000000000     0.1168165207
    2      H      -0.7650869966    -0.0000000000    -0.4672660829
    3      H       0.7650869966     0.0000000000    -0.4672660829
 ----------------------------------------------------------------
 Molecular Point Group                 C2v   NOp =  4
 Largest Abelian Subgroup              C2v   NOp =  4
 Nuclear Repulsion Energy =           9.14204482 hartrees
 There are        5 alpha and        5 beta electrons
 Requested basis set is def2-SVPD
 There are 17 shells and 39 basis functions

 Total QAlloc Memory Limit   8000 MB
 Mega-Array Size      1956 MB
 MEM_STATIC part      2000 MB


                       Distance Matrix (Angstroms)
             O (  1)   H (  2)
   H (  2)  0.962554
   H (  3)  0.962554  1.530174
 
 A cutoff of  1.0D-14 yielded    153 shell pairs
 There are       821 function pairs (       912 Cartesian)
 Smallest overlap matrix eigenvalue = 5.34E-03
 Guess from superposition of atomic densities
 Warning:  Energy on first SCF cycle will be non-variational
 SAD guess density has 10.000000 electrons

 -----------------------------------------------------------------------
  General SCF calculation program by
  Eric Jon Sundstrom, Paul Horn, Yuezhi Mao, Dmitri Zuev, Alec White,
  David Stuck, Shaama M.S., Shane Yost, Joonho Lee, David Small,
  Daniel Levine, Susi Lehtola, Hugh Burton, Evgeny Epifanovsky,
  Bang C. Huynh
 -----------------------------------------------------------------------
 Exchange:     0.1670 Hartree-Fock + 1.0000 wB97X-V + LR-HF
 Correlation:  1.0000 wB97X-V
 Using Euler-Maclaurin-Lebedev (75,302) quadrature formula
 Nonlocal Correlation:  VV10 with C = 0.0100 and b = 6.00 and scale = 1.00000
 Grid used for NLC:  SG-1 standard quadrature
 using 8 threads for integral computing
 -------------------------------------------------------
 OpenMP Integral computing Module                
 Release: version 1.0, May 2013, Q-Chem Inc. Pittsburgh 
 -------------------------------------------------------
 A restricted SCF calculation will be
 performed using DIIS
 SCF converges when DIIS error is below 1.0e-09
 ---------------------------------------
  Cycle       Energy         DIIS error
 ---------------------------------------
    1     -76.2446109664      8.05e-02  
    2     -76.2947893602      1.88e-02  
    3     -76.3041592822      1.84e-02  
    4     -76.3492114037      8.26e-04  
    5     -76.3493141836      2.09e-04  
    6     -76.3493246401      3.01e-05  
    7     -76.3493249299      3.20e-06  
    8     -76.3493249371      4.12e-07  
    9     -76.3493249372      6.42e-08  
   10     -76.3493249372      8.45e-09  
   11     -76.3493249372      1.03e-09  
   12     -76.3493249372      1.63e-10  Convergence criterion met
 ---------------------------------------
 SCF time:   CPU 24.78s  wall 5.00s 
 SCF   energy =   -76.34932494
 Total energy =   -76.34932494
 
 --------------------------------------------------------------
             Orbital Energies (a.u.) and Symmetries
 --------------------------------------------------------------
 
 Alpha MOs, Restricted
 -- Occupied --                  
-19.237  -1.132  -0.650  -0.505  -0.432
  1 A1    2 A1    1 B1    3 A1    1 B2                                         
 -- Virtual --                   
  0.076   0.134   0.182   0.183   0.238   0.266   0.306   0.328
  4 A1    2 B1    2 B2    5 A1    3 B1    6 A1    1 A2    7 A1                 
  0.355   0.431   0.435   0.472   0.607   0.622   0.664   0.699
  3 B2    8 A1    4 B1    5 B1    6 B1    9 A1    4 B2   10 A1                 
  0.702   1.008   1.123   1.310   1.325   1.627   1.729   1.767
  2 A2   11 A1    7 B1    5 B2   12 A1    8 B1   13 A1    3 A2                 
  1.923   2.044   2.047   2.355   2.474   3.102   3.162   3.303
  6 B2    9 B1   14 A1   10 B1   15 A1    7 B2    4 A2   16 A1                 
  3.733   4.138
 17 A1   11 B1                                                                 
 
 Beta MOs, Restricted
 -- Occupied --                  
-19.237  -1.132  -0.650  -0.505  -0.432
  1 A1    2 A1    1 B1    3 A1    1 B2                                         
 -- Virtual --                   
  0.076   0.134   0.182   0.183   0.238   0.266   0.306   0.328
  4 A1    2 B1    2 B2    5 A1    3 B1    6 A1    1 A2    7 A1                 
  0.355   0.431   0.435   0.472   0.607   0.622   0.664   0.699
  3 B2    8 A1    4 B1    5 B1    6 B1    9 A1    4 B2   10 A1                 
  0.702   1.008   1.123   1.310   1.325   1.627   1.729   1.767
  2 A2   11 A1    7 B1    5 B2   12 A1    8 B1   13 A1    3 A2                 
  1.923   2.044   2.047   2.355   2.474   3.102   3.162   3.303
  6 B2    9 B1   14 A1   10 B1   15 A1    7 B2    4 A2   16 A1                 
  3.733   4.138
 17 A1   11 B1                                                                 
 --------------------------------------------------------------
 
          Ground-State Mulliken Net Atomic Charges

     Atom                 Charge (a.u.)
  ----------------------------------------
      1 O                    -0.267127
      2 H                     0.133563
      3 H                     0.133563
  ----------------------------------------
  Sum of atomic charges =     0.000000

 -----------------------------------------------------------------
                    Cartesian Multipole Moments
 -----------------------------------------------------------------
    Charge (ESU x 10^10)
                -0.0000
    Dipole Moment (Debye)
         X      -0.0000      Y       0.0000      Z      -1.9052
       Tot       1.9052
    Quadrupole Moments (Debye-Ang)
        XX      -4.4753     XY       0.0000     YY      -7.8152
        XZ       0.0000     YZ       0.0000     ZZ      -6.5013
    Octopole Moments (Debye-Ang^2)
       XXX      -0.0000    XXY      -0.0000    XYY      -0.0000
       YYY      -0.0000    XXZ      -1.3152    XYZ       0.0000
       YYZ      -0.2348    XZZ      -0.0000    YZZ      -0.0000
       ZZZ      -1.0776
    Hexadecapole Moments (Debye-Ang^3)
      XXXX      -6.7605   XXXY       0.0000   XXYY      -2.7527
      XYYY       0.0000   YYYY      -7.9538   XXXZ       0.0000
      XXYZ       0.0000   XYYZ       0.0000   YYYZ       0.0000
      XXZZ      -2.2246   XYZZ       0.0000   YYZZ      -2.7263
      XZZZ       0.0000   YZZZ       0.0000   ZZZZ      -8.1353
 -----------------------------------------------------------------
 Calculating analytic gradient of the SCF energy
 Gradient of SCF Energy
            1           2           3
    1  -0.0000000   0.0000083  -0.0000083
    2   0.0000000  -0.0000000  -0.0000000
    3  -0.0000240   0.0000120   0.0000120
 Max gradient component =       2.397E-05
 RMS gradient           =       1.054E-05
 Gradient time:  CPU 3.80 s  wall 1.14 s


 ##########################################
 # Starting finite difference calculation #
 ##########################################

 Finite diff step size:  1.88973e-03 a.u.
 ----------------------------------------------------------------
             Standard Nuclear Orientation (Angstroms)
    I     Atom           X                Y                Z
 ----------------------------------------------------------------
    1      O       0.0010000000     0.0000000000     0.1168165207
    2      H      -0.7650869966    -0.0000000000    -0.4672660829
    3      H       0.7650869966     0.0000000000    -0.4672660829
 ----------------------------------------------------------------
 Nuclear Repulsion Energy =           9.14204907 hartrees
 There are        5 alpha and        5 beta electrons

                       Distance Matrix (Angstroms)
             O (  1)   H (  2)
   H (  2)  0.963349
   H (  3)  0.961760  1.530174
 
 Requested basis set is def2-SVPD
 There are 17 shells and 39 basis functions
 A cutoff of  1.0D-14 yielded    153 shell pairs
 There are       821 function pairs (       912 Cartesian)
 Smallest overlap matrix eigenvalue = 5.34E-03
 Guess MOs from SCF MO coefficient file

 -----------------------------------------------------------------------
  General SCF calculation program by
  Eric Jon Sundstrom, Paul Horn, Yuezhi Mao, Dmitri Zuev, Alec White,
  David Stuck, Shaama M.S., Shane Yost, Joonho Lee, David Small,
  Daniel Levine, Susi Lehtola, Hugh Burton, Evgeny Epifanovsky,
  Bang C. Huynh
 -----------------------------------------------------------------------
 Exchange:     0.1670 Hartree-Fock + 1.0000 wB97X-V + LR-HF
 Correlation:  1.0000 wB97X-V
 Using Euler-Maclaurin-Lebedev (75,302) quadrature formula
 Nonlocal Correlation:  VV10 with C = 0.0100 and b = 6.00 and scale = 1.00000
 Grid used for NLC:  SG-1 standard quadrature
 A restricted SCF calculation will be
 performed using DIIS
 SCF converges when DIIS error is below 1.0e-09
 ---------------------------------------
  Cycle       Energy         DIIS error
 ---------------------------------------
    1     -76.3493231886      5.10e-05  
    2     -76.3493236513      9.71e-06  
    3     -76.3493236728      2.50e-06  
    4     -76.3493236745      4.19e-07  
    5     -76.3493236746      6.17e-08  
    6     -76.3493236746      4.46e-08  
    7     -76.3493236746      3.33e-09  
    8     -76.3493236746      3.32e-10  Convergence criterion met
 ---------------------------------------
 SCF time:   CPU 16.39s  wall 4.00s 
 SCF   energy =   -76.34932367
 Total energy =   -76.34932367
 
 --------------------------------------------------------------
 
                    Orbital Energies (a.u.)
 --------------------------------------------------------------
 
 Alpha MOs
 -- Occupied --
-19.2368  -1.1325  -0.6502  -0.5048  -0.4318
 -- Virtual --
  0.0760   0.1339   0.1823   0.1826   0.2382   0.2656   0.3061   0.3275
  0.3545   0.4312   0.4352   0.4718   0.6066   0.6220   0.6638   0.6989
  0.7022   1.0081   1.1228   1.3104   1.3252   1.6270   1.7290   1.7675
  1.9232   2.0440   2.0466   2.3547   2.4742   3.1020   3.1623   3.3030
  3.7330   4.1378
 --------------------------------------------------------------
 
          Ground-State Mulliken Net Atomic Charges

     Atom                 Charge (a.u.)
  ----------------------------------------
      1 O                    -0.267126
      2 H                     0.134294
      3 H                     0.132832
  ----------------------------------------
  Sum of atomic charges =     0.000000

 -----------------------------------------------------------------
                    Cartesian Multipole Moments
 -----------------------------------------------------------------
    Charge (ESU x 10^10)
                 0.0000
    Dipole Moment (Debye)
         X      -0.0026      Y      -0.0000      Z      -1.9052
       Tot       1.9052
    Quadrupole Moments (Debye-Ang)
        XX      -4.4753     XY       0.0000     YY      -7.8152
        XZ      -0.0005     YZ       0.0000     ZZ      -6.5013
    Octopole Moments (Debye-Ang^2)
       XXX      -0.0154    XXY      -0.0000    XYY      -0.0058
       YYY      -0.0000    XXZ      -1.3152    XYZ       0.0000
       YYZ      -0.2348    XZZ      -0.0054    YZZ      -0.0000
       ZZZ      -1.0776
    Hexadecapole Moments (Debye-Ang^3)
      XXXX      -6.7606   XXXY      -0.0000   XXYY      -2.7527
      XYYY       0.0000   YYYY      -7.9538   XXXZ      -0.0028
      XXYZ       0.0000   XYYZ      -0.0012   YYYZ       0.0000
      XXZZ      -2.2246   XYZZ       0.0000   YYZZ      -2.7263
      XZZZ      -0.0035   YZZZ       0.0000   ZZZZ      -8.1353
 -----------------------------------------------------------------
 Calculating analytic gradient of the SCF energy
 Gradient of SCF Energy
            1           2           3
    1   0.0013363  -0.0006584  -0.0006778
    2  -0.0000000   0.0000000   0.0000000
    3  -0.0000273  -0.0004966   0.0005238
 Max gradient component =       1.336E-03
 RMS gradient           =       5.963E-04
 Gradient time:  CPU 4.41 s  wall 1.11 s
 ----------------------------------------------------------------
             Standard Nuclear Orientation (Angstroms)
    I     Atom           X                Y                Z
 ----------------------------------------------------------------
    1      O       0.0000000000     0.0010000000     0.1168165207
    2      H      -0.7650869966    -0.0000000000    -0.4672660829
    3      H       0.7650869966     0.0000000000    -0.4672660829
 ----------------------------------------------------------------
 Nuclear Repulsion Energy =           9.14204007 hartrees
 There are        5 alpha and        5 beta electrons

                       Distance Matrix (Angstroms)
             O (  1)   H (  2)
   H (  2)  0.962555
   H (  3)  0.962555  1.530174
 
 Requested basis set is def2-SVPD
 There are 17 shells and 39 basis functions
 A cutoff of  1.0D-14 yielded    153 shell pairs
 There are       821 function pairs (       912 Cartesian)
 Smallest overlap matrix eigenvalue = 5.34E-03
 Guess MOs from SCF MO coefficient file

 -----------------------------------------------------------------------
  General SCF calculation program by
  Eric Jon Sundstrom, Paul Horn, Yuezhi Mao, Dmitri Zuev, Alec White,
  David Stuck, Shaama M.S., Shane Yost, Joonho Lee, David Small,
  Daniel Levine, Susi Lehtola, Hugh Burton, Evgeny Epifanovsky,
  Bang C. Huynh
 -----------------------------------------------------------------------
 Exchange:     0.1670 Hartree-Fock + 1.0000 wB97X-V + LR-HF
 Correlation:  1.0000 wB97X-V
 Using Euler-Maclaurin-Lebedev (75,302) quadrature formula
 Nonlocal Correlation:  VV10 with C = 0.0100 and b = 6.00 and scale = 1.00000
 Grid used for NLC:  SG-1 standard quadrature
 A restricted SCF calculation will be
 performed using DIIS
 SCF converges when DIIS error is below 1.0e-09
 ---------------------------------------
  Cycle       Energy         DIIS error
 ---------------------------------------
    1     -76.3493241433      6.49e-05  
    2     -76.3493248995      1.18e-05  
    3     -76.3493249342      2.99e-06  
    4     -76.3493249368      6.18e-07  
    5     -76.3493249371      1.20e-07  
    6     -76.3493249371      3.59e-08  
    7     -76.3493249371      2.45e-08  
    8     -76.3493249371      3.64e-09  
    9     -76.3493249371      4.56e-10  Convergence criterion met
 ---------------------------------------
 SCF time:   CPU 21.97s  wall 4.00s 
 SCF   energy =   -76.34932494
 Total energy =   -76.34932494
 
 --------------------------------------------------------------
 
                    Orbital Energies (a.u.)
 --------------------------------------------------------------
 
 Alpha MOs
 -- Occupied --
-19.2368  -1.1325  -0.6502  -0.5048  -0.4318
 -- Virtual --
  0.0760   0.1339   0.1823   0.1826   0.2382   0.2656   0.3061   0.3275
  0.3545   0.4312   0.4352   0.4718   0.6066   0.6220   0.6638   0.6989
  0.7022   1.0081   1.1228   1.3104   1.3252   1.6270   1.7290   1.7675
  1.9232   2.0440   2.0466   2.3547   2.4742   3.1020   3.1623   3.3030
  3.7330   4.1377
 --------------------------------------------------------------
 
          Ground-State Mulliken Net Atomic Charges

     Atom                 Charge (a.u.)
  ----------------------------------------
      1 O                    -0.267128
      2 H                     0.133564
      3 H                     0.133564
  ----------------------------------------
  Sum of atomic charges =     0.000000

 -----------------------------------------------------------------
                    Cartesian Multipole Moments
 -----------------------------------------------------------------
    Charge (ESU x 10^10)
                 0.0000
    Dipole Moment (Debye)
         X      -0.0000      Y      -0.0033      Z      -1.9052
       Tot       1.9052
    Quadrupole Moments (Debye-Ang)
        XX      -4.4753     XY      -0.0000     YY      -7.8152
        XZ       0.0000     YZ       0.0007     ZZ      -6.5013
    Octopole Moments (Debye-Ang^2)
       XXX      -0.0000    XXY      -0.0058    XYY       0.0000
       YYY      -0.0200    XXZ      -1.3152    XYZ      -0.0000
       YYZ      -0.2347    XZZ       0.0000    YZZ      -0.0062
       ZZZ      -1.0776
    Hexadecapole Moments (Debye-Ang^3)
      XXXX      -6.7605   XXXY      -0.0000   XXYY      -2.7527
      XYYY      -0.0000   YYYY      -7.9539   XXXZ       0.0000
      XXYZ      -0.0001   XYYZ       0.0000   YYYZ      -0.0009
      XXZZ      -2.2246   XYZZ       0.0000   YYZZ      -2.7263
      XZZZ       0.0000   YZZZ      -0.0008   ZZZZ      -8.1353
 -----------------------------------------------------------------
 Calculating analytic gradient of the SCF energy
 Gradient of SCF Energy
            1           2           3
    1   0.0000000   0.0000080  -0.0000080
    2   0.0000001  -0.0000001  -0.0000001
    3  -0.0000232   0.0000116   0.0000116
 Max gradient component =       2.322E-05
 RMS gradient           =       1.020E-05
 Gradient time:  CPU 4.54 s  wall 1.14 s
 ----------------------------------------------------------------
             Standard Nuclear Orientation (Angstroms)
    I     Atom           X                Y                Z
 ----------------------------------------------------------------
    1      O       0.0000000000     0.0000000000     0.1178165207
    2      H      -0.7650869966    -0.0000000000    -0.4672660829
    3      H       0.7650869966     0.0000000000    -0.4672660829
 ----------------------------------------------------------------
 Nuclear Repulsion Energy =           9.13650009 hartrees
 There are        5 alpha and        5 beta electrons

                       Distance Matrix (Angstroms)
             O (  1)   H (  2)
   H (  2)  0.963161
   H (  3)  0.963161  1.530174
 
 Requested basis set is def2-SVPD
 There are 17 shells and 39 basis functions
 A cutoff of  1.0D-14 yielded    153 shell pairs
 There are       821 function pairs (       912 Cartesian)
 Smallest overlap matrix eigenvalue = 5.34E-03
 Guess MOs from SCF MO coefficient file

 -----------------------------------------------------------------------
  General SCF calculation program by
  Eric Jon Sundstrom, Paul Horn, Yuezhi Mao, Dmitri Zuev, Alec White,
  David Stuck, Shaama M.S., Shane Yost, Joonho Lee, David Small,
  Daniel Levine, Susi Lehtola, Hugh Burton, Evgeny Epifanovsky,
  Bang C. Huynh
 -----------------------------------------------------------------------
 Exchange:     0.1670 Hartree-Fock + 1.0000 wB97X-V + LR-HF
 Correlation:  1.0000 wB97X-V
 Using Euler-Maclaurin-Lebedev (75,302) quadrature formula
 Nonlocal Correlation:  VV10 with C = 0.0100 and b = 6.00 and scale = 1.00000
 Grid used for NLC:  SG-1 standard quadrature
 A restricted SCF calculation will be
 performed using DIIS
 SCF converges when DIIS error is below 1.0e-09
 ---------------------------------------
  Cycle       Energy         DIIS error
 ---------------------------------------
    1     -76.3493234477      6.12e-05  
    2     -76.3493241199      1.34e-05  
    3     -76.3493241471      9.82e-06  
    4     -76.3493241608      1.97e-06  
    5     -76.3493241618      3.55e-07  
    6     -76.3493241619      7.03e-08  
    7     -76.3493241619      1.02e-08  
    8     -76.3493241619      1.65e-09  
    9     -76.3493241619      2.49e-10  Convergence criterion met
 ---------------------------------------
 SCF time:   CPU 18.12s  wall 3.00s 
 SCF   energy =   -76.34932416
 Total energy =   -76.34932416
 
 --------------------------------------------------------------
 
                    Orbital Energies (a.u.)
 --------------------------------------------------------------
 
 Alpha MOs
 -- Occupied --
-19.2369  -1.1323  -0.6498  -0.5049  -0.4318
 -- Virtual --
  0.0759   0.1338   0.1824   0.1826   0.2380   0.2657   0.3061   0.3273
  0.3543   0.4310   0.4353   0.4716   0.6065   0.6221   0.6639   0.6990
  0.7021   1.0075   1.1223   1.3100   1.3250   1.6269   1.7287   1.7672
  1.9231   2.0441   2.0462   2.3531   2.4731   3.1020   3.1615   3.3025
  3.7315   4.1371
 --------------------------------------------------------------
 
          Ground-State Mulliken Net Atomic Charges

     Atom                 Charge (a.u.)
  ----------------------------------------
      1 O                    -0.268142
      2 H                     0.134071
      3 H                     0.134071
  ----------------------------------------
  Sum of atomic charges =     0.000000

 -----------------------------------------------------------------
                    Cartesian Multipole Moments
 -----------------------------------------------------------------
    Charge (ESU x 10^10)
                -0.0000
    Dipole Moment (Debye)
         X      -0.0000      Y       0.0000      Z      -1.9070
       Tot       1.9070
    Quadrupole Moments (Debye-Ang)
        XX      -4.4779     XY       0.0000     YY      -7.8166
        XZ      -0.0000     YZ      -0.0000     ZZ      -6.5019
    Octopole Moments (Debye-Ang^2)
       XXX      -0.0000    XXY       0.0000    XYY      -0.0000
       YYY       0.0000    XXZ      -1.3202    XYZ      -0.0000
       YYZ      -0.2407    XZZ      -0.0000    YZZ       0.0000
       ZZZ      -1.0940
    Hexadecapole Moments (Debye-Ang^3)
      XXXX      -6.7677   XXXY       0.0000   XXYY      -2.7541
      XYYY       0.0000   YYYY      -7.9561   XXXZ       0.0000
      XXYZ      -0.0000   XYYZ      -0.0000   YYYZ      -0.0000
      XXZZ      -2.2265   XYZZ       0.0000   YYZZ      -2.7281
      XZZZ      -0.0000   YZZZ      -0.0000   ZZZZ      -8.1434
 -----------------------------------------------------------------
 Calculating analytic gradient of the SCF energy
 Gradient of SCF Energy
            1           2           3
    1   0.0000000  -0.0003919   0.0003919
    2  -0.0000000   0.0000000   0.0000000
    3   0.0008443  -0.0004222  -0.0004222
 Max gradient component =       8.443E-04
 RMS gradient           =       3.911E-04
 Gradient time:  CPU 4.81 s  wall 0.89 s
 ----------------------------------------------------------------
             Standard Nuclear Orientation (Angstroms)
    I     Atom           X                Y                Z
 ----------------------------------------------------------------
    1      O       0.0000000000     0.0000000000     0.1158165207
    2      H      -0.7650869966    -0.0000000000    -0.4672660829
    3      H       0.7650869966     0.0000000000    -0.4672660829
 ----------------------------------------------------------------
 Nuclear Repulsion Energy =           9.14759055 hartrees
 There are        5 alpha and        5 beta electrons

                       Distance Matrix (Angstroms)
             O (  1)   H (  2)
   H (  2)  0.961948
   H (  3)  0.961948  1.530174
 
 Requested basis set is def2-SVPD
 There are 17 shells and 39 basis functions
 A cutoff of  1.0D-14 yielded    153 shell pairs
 There are       821 function pairs (       912 Cartesian)
 Smallest overlap matrix eigenvalue = 5.34E-03
 Guess MOs from SCF MO coefficient file

 -----------------------------------------------------------------------
  General SCF calculation program by
  Eric Jon Sundstrom, Paul Horn, Yuezhi Mao, Dmitri Zuev, Alec White,
  David Stuck, Shaama M.S., Shane Yost, Joonho Lee, David Small,
  Daniel Levine, Susi Lehtola, Hugh Burton, Evgeny Epifanovsky,
  Bang C. Huynh
 -----------------------------------------------------------------------
 Exchange:     0.1670 Hartree-Fock + 1.0000 wB97X-V + LR-HF
 Correlation:  1.0000 wB97X-V
 Using Euler-Maclaurin-Lebedev (75,302) quadrature formula
 Nonlocal Correlation:  VV10 with C = 0.0100 and b = 6.00 and scale = 1.00000
 Grid used for NLC:  SG-1 standard quadrature
 A restricted SCF calculation will be
 performed using DIIS
 SCF converges when DIIS error is below 1.0e-09
 ---------------------------------------
  Cycle       Energy         DIIS error
 ---------------------------------------
    1     -76.3493224441      9.22e-05  
    2     -76.3493239599      2.32e-05  
    3     -76.3493240237      1.77e-05  
    4     -76.3493240682      3.05e-06  
    5     -76.3493240704      5.05e-07  
    6     -76.3493240706      8.81e-08  
    7     -76.3493240706      9.45e-09  
    8     -76.3493240706      1.07e-09  
    9     -76.3493240706      1.35e-10  Convergence criterion met
 ---------------------------------------
 SCF time:   CPU 21.31s  wall 4.00s 
 SCF   energy =   -76.34932407
 Total energy =   -76.34932407
 
 --------------------------------------------------------------
 
                    Orbital Energies (a.u.)
 --------------------------------------------------------------
 
 Alpha MOs
 -- Occupied --
-19.2367  -1.1326  -0.6506  -0.5047  -0.4318
 -- Virtual --
  0.0761   0.1339   0.1823   0.1826   0.2384   0.2656   0.3060   0.3278
  0.3547   0.4313   0.4352   0.4720   0.6067   0.6219   0.6636   0.6987
  0.7023   1.0087   1.1233   1.3107   1.3253   1.6270   1.7292   1.7677
  1.9234   2.0439   2.0469   2.3564   2.4752   3.1020   3.1630   3.3036
  3.7346   4.1384
 --------------------------------------------------------------
 
          Ground-State Mulliken Net Atomic Charges

     Atom                 Charge (a.u.)
  ----------------------------------------
      1 O                    -0.266111
      2 H                     0.133056
      3 H                     0.133056
  ----------------------------------------
  Sum of atomic charges =     0.000000

 -----------------------------------------------------------------
                    Cartesian Multipole Moments
 -----------------------------------------------------------------
    Charge (ESU x 10^10)
                 0.0000
    Dipole Moment (Debye)
         X      -0.0000      Y       0.0000      Z      -1.9034
       Tot       1.9034
    Quadrupole Moments (Debye-Ang)
        XX      -4.4728     XY       0.0000     YY      -7.8138
        XZ       0.0000     YZ      -0.0000     ZZ      -6.5008
    Octopole Moments (Debye-Ang^2)
       XXX      -0.0000    XXY       0.0000    XYY      -0.0000
       YYY       0.0000    XXZ      -1.3102    XYZ      -0.0000
       YYZ      -0.2288    XZZ      -0.0000    YZZ       0.0000
       ZZZ      -1.0612
    Hexadecapole Moments (Debye-Ang^3)
      XXXX      -6.7534   XXXY      -0.0000   XXYY      -2.7513
      XYYY       0.0000   YYYY      -7.9515   XXXZ       0.0000
      XXYZ      -0.0000   XYYZ       0.0000   YYYZ      -0.0000
      XXZZ      -2.2227   XYZZ       0.0000   YYZZ      -2.7245
      XZZZ       0.0000   YZZZ      -0.0000   ZZZZ      -8.1272
 -----------------------------------------------------------------
 Calculating analytic gradient of the SCF energy
 Gradient of SCF Energy
            1           2           3
    1  -0.0000000   0.0004106  -0.0004106
    2  -0.0000000   0.0000000   0.0000000
    3  -0.0008934   0.0004467   0.0004467
 Max gradient component =       8.934E-04
 RMS gradient           =       4.129E-04
 Gradient time:  CPU 4.72 s  wall 0.94 s
 ----------------------------------------------------------------
             Standard Nuclear Orientation (Angstroms)
    I     Atom           X                Y                Z
 ----------------------------------------------------------------
    1      O       0.0000000000     0.0000000000     0.1168165207
    2      H      -0.7640869966    -0.0000000000    -0.4672660829
    3      H       0.7650869966     0.0000000000    -0.4672660829
 ----------------------------------------------------------------
 Nuclear Repulsion Energy =           9.14590494 hartrees
 There are        5 alpha and        5 beta electrons

                       Distance Matrix (Angstroms)
             O (  1)   H (  2)
   H (  2)  0.961760
   H (  3)  0.962554  1.529174
 
 Requested basis set is def2-SVPD
 There are 17 shells and 39 basis functions
 A cutoff of  1.0D-14 yielded    153 shell pairs
 There are       821 function pairs (       912 Cartesian)
 Smallest overlap matrix eigenvalue = 5.33E-03
 Guess MOs from SCF MO coefficient file

 -----------------------------------------------------------------------
  General SCF calculation program by
  Eric Jon Sundstrom, Paul Horn, Yuezhi Mao, Dmitri Zuev, Alec White,
  David Stuck, Shaama M.S., Shane Yost, Joonho Lee, David Small,
  Daniel Levine, Susi Lehtola, Hugh Burton, Evgeny Epifanovsky,
  Bang C. Huynh
 -----------------------------------------------------------------------
 Exchange:     0.1670 Hartree-Fock + 1.0000 wB97X-V + LR-HF
 Correlation:  1.0000 wB97X-V
 Using Euler-Maclaurin-Lebedev (75,302) quadrature formula
 Nonlocal Correlation:  VV10 with C = 0.0100 and b = 6.00 and scale = 1.00000
 Grid used for NLC:  SG-1 standard quadrature
 A restricted SCF calculation will be
 performed using DIIS
 SCF converges when DIIS error is below 1.0e-09
 ---------------------------------------
  Cycle       Energy         DIIS error
 ---------------------------------------
    1     -76.3493237702      4.89e-05  
    2     -76.3493242179      8.32e-06  
    3     -76.3493242371      2.29e-06  
    4     -76.3493242383      1.15e-06  
    5     -76.3493242385      3.88e-07  
    6     -76.3493242385      4.06e-08  
    7     -76.3493242385      6.56e-09  
    8     -76.3493242385      1.74e-09  
    9     -76.3493242385      2.40e-10  Convergence criterion met
 ---------------------------------------
 SCF time:   CPU 17.49s  wall 4.00s 
 SCF   energy =   -76.34932424
 Total energy =   -76.34932424
 
 --------------------------------------------------------------
 
                    Orbital Energies (a.u.)
 --------------------------------------------------------------
 
 Alpha MOs
 -- Occupied --
-19.2368  -1.1327  -0.6503  -0.5049  -0.4318
 -- Virtual --
  0.0760   0.1339   0.1823   0.1826   0.2383   0.2657   0.3061   0.3275
  0.3545   0.4313   0.4353   0.4719   0.6066   0.6220   0.6638   0.6989
  0.7022   1.0084   1.1230   1.3105   1.3253   1.6269   1.7289   1.7676
  1.9234   2.0446   2.0464   2.3556   2.4748   3.1024   3.1625   3.3039
  3.7334   4.1386
 --------------------------------------------------------------
 
          Ground-State Mulliken Net Atomic Charges

     Atom                 Charge (a.u.)
  ----------------------------------------
      1 O                    -0.266279
      2 H                     0.132774
      3 H                     0.133505
  ----------------------------------------
  Sum of atomic charges =     0.000000

 -----------------------------------------------------------------
                    Cartesian Multipole Moments
 -----------------------------------------------------------------
    Charge (ESU x 10^10)
                 0.0000
    Dipole Moment (Debye)
         X       0.0013      Y       0.0000      Z      -1.9055
       Tot       1.9055
    Quadrupole Moments (Debye-Ang)
        XX      -4.4778     XY       0.0000     YY      -7.8141
        XZ      -0.0007     YZ      -0.0000     ZZ      -6.5000
    Octopole Moments (Debye-Ang^2)
       XXX       0.0010    XXY       0.0000    XYY      -0.0010
       YYY       0.0000    XXZ      -1.3140    XYZ      -0.0000
       YYZ      -0.2351    XZZ      -0.0005    YZZ       0.0000
       ZZZ      -1.0787
    Hexadecapole Moments (Debye-Ang^3)
      XXXX      -6.7587   XXXY       0.0000   XXYY      -2.7512
      XYYY       0.0000   YYYY      -7.9518   XXXZ      -0.0006
      XXYZ      -0.0000   XYYZ       0.0005   YYYZ      -0.0000
      XXZZ      -2.2237   XYZZ       0.0000   YYZZ      -2.7254
      XZZZ       0.0012   YZZZ      -0.0000   ZZZZ      -8.1318
 -----------------------------------------------------------------
 Calculating analytic gradient of the SCF energy
 Gradient of SCF Energy
            1           2           3
    1  -0.0006695   0.0007316  -0.0000621
    2   0.0000000  -0.0000000   0.0000000
    3  -0.0004268   0.0004693  -0.0000425
 Max gradient component =       7.316E-04
 RMS gradient           =       3.932E-04
 Gradient time:  CPU 4.31 s  wall 0.96 s
 ----------------------------------------------------------------
             Standard Nuclear Orientation (Angstroms)
    I     Atom           X                Y                Z
 ----------------------------------------------------------------
    1      O       0.0000000000     0.0000000000     0.1168165207
    2      H      -0.7660869966    -0.0000000000    -0.4672660829
    3      H       0.7650869966     0.0000000000    -0.4672660829
 ----------------------------------------------------------------
 Nuclear Repulsion Energy =           9.13818925 hartrees
 There are        5 alpha and        5 beta electrons

                       Distance Matrix (Angstroms)
             O (  1)   H (  2)
   H (  2)  0.963349
   H (  3)  0.962554  1.531174
 
 Requested basis set is def2-SVPD
 There are 17 shells and 39 basis functions
 A cutoff of  1.0D-14 yielded    153 shell pairs
 There are       821 function pairs (       912 Cartesian)
 Smallest overlap matrix eigenvalue = 5.35E-03
 Guess MOs from SCF MO coefficient file

 -----------------------------------------------------------------------
  General SCF calculation program by
  Eric Jon Sundstrom, Paul Horn, Yuezhi Mao, Dmitri Zuev, Alec White,
  David Stuck, Shaama M.S., Shane Yost, Joonho Lee, David Small,
  Daniel Levine, Susi Lehtola, Hugh Burton, Evgeny Epifanovsky,
  Bang C. Huynh
 -----------------------------------------------------------------------
 Exchange:     0.1670 Hartree-Fock + 1.0000 wB97X-V + LR-HF
 Correlation:  1.0000 wB97X-V
 Using Euler-Maclaurin-Lebedev (75,302) quadrature formula
 Nonlocal Correlation:  VV10 with C = 0.0100 and b = 6.00 and scale = 1.00000
 Grid used for NLC:  SG-1 standard quadrature
 A restricted SCF calculation will be
 performed using DIIS
 SCF converges when DIIS error is below 1.0e-09
 ---------------------------------------
  Cycle       Energy         DIIS error
 ---------------------------------------
    1     -76.3493233059      7.42e-05  
    2     -76.3493242094      1.88e-05  
    3     -76.3493242434      1.41e-05  
    4     -76.3493242707      2.35e-06  
    5     -76.3493242718      3.59e-07  
    6     -76.3493242719      5.57e-08  
    7     -76.3493242719      1.02e-08  
    8     -76.3493242719      2.68e-09  
    9     -76.3493242719      3.28e-10  Convergence criterion met
 ---------------------------------------
 SCF time:   CPU 16.72s  wall 3.00s 
 SCF   energy =   -76.34932427
 Total energy =   -76.34932427
 
 --------------------------------------------------------------
 
                    Orbital Energies (a.u.)
 --------------------------------------------------------------
 
 Alpha MOs
 -- Occupied --
-19.2369  -1.1323  -0.6501  -0.5047  -0.4318
 -- Virtual --
  0.0760   0.1338   0.1823   0.1826   0.2381   0.2655   0.3060   0.3275
  0.3545   0.4311   0.4352   0.4717   0.6066   0.6219   0.6637   0.6988
  0.7022   1.0079   1.1227   1.3102   1.3250   1.6270   1.7290   1.7674
  1.9231   2.0434   2.0467   2.3539   2.4736   3.1016   3.1620   3.3022
  3.7327   4.1369
 --------------------------------------------------------------
 
          Ground-State Mulliken Net Atomic Charges

     Atom                 Charge (a.u.)
  ----------------------------------------
      1 O                    -0.267973
      2 H                     0.134352
      3 H                     0.133621
  ----------------------------------------
  Sum of atomic charges =     0.000000

 -----------------------------------------------------------------
                    Cartesian Multipole Moments
 -----------------------------------------------------------------
    Charge (ESU x 10^10)
                 0.0000
    Dipole Moment (Debye)
         X      -0.0013      Y       0.0000      Z      -1.9049
       Tot       1.9049
    Quadrupole Moments (Debye-Ang)
        XX      -4.4729     XY      -0.0000     YY      -7.8162
        XZ       0.0007     YZ      -0.0000     ZZ      -6.5027
    Octopole Moments (Debye-Ang^2)
       XXX      -0.0010    XXY      -0.0000    XYY       0.0010
       YYY       0.0000    XXZ      -1.3164    XYZ       0.0000
       YYZ      -0.2344    XZZ       0.0005    YZZ       0.0000
       ZZZ      -1.0764
    Hexadecapole Moments (Debye-Ang^3)
      XXXX      -6.7623   XXXY      -0.0000   XXYY      -2.7541
      XYYY      -0.0000   YYYY      -7.9558   XXXZ       0.0006
      XXYZ       0.0000   XYYZ      -0.0005   YYYZ      -0.0000
      XXZZ      -2.2255   XYZZ      -0.0000   YYZZ      -2.7272
      XZZZ      -0.0012   YZZZ      -0.0000   ZZZZ      -8.1387
 -----------------------------------------------------------------
 Calculating analytic gradient of the SCF energy
 Gradient of SCF Energy
            1           2           3
    1   0.0006668  -0.0007120   0.0000452
    2  -0.0000000   0.0000000  -0.0000000
[...]
      XYYY       0.0002   YYYY      -7.9538   XXXZ      -0.0000
      XXYZ      -0.0006   XYYZ       0.0000   YYYZ       0.0001
      XXZZ      -2.2246   XYZZ      -0.0003   YYZZ      -2.7263
      XZZZ      -0.0000   YZZZ      -0.0001   ZZZZ      -8.1353
 -----------------------------------------------------------------
 Calculating analytic gradient of the SCF energy
 Gradient of SCF Energy
            1           2           3
    1   0.0000004   0.0000079  -0.0000083
    2  -0.0000001   0.0000001   0.0000000
    3  -0.0000236   0.0000117   0.0000120
 Max gradient component =       2.365E-05
 RMS gradient           =       1.039E-05
 Gradient time:  CPU 5.02 s  wall 0.74 s
 ----------------------------------------------------------------
             Standard Nuclear Orientation (Angstroms)
    I     Atom           X                Y                Z
 ----------------------------------------------------------------
    1      O       0.0000000000     0.0000000000     0.1168165207
    2      H      -0.7650869966    -0.0000000000    -0.4662660829
    3      H       0.7650869966     0.0000000000    -0.4672660829
 ----------------------------------------------------------------
 Nuclear Repulsion Energy =           9.14481761 hartrees
 There are        5 alpha and        5 beta electrons

                       Distance Matrix (Angstroms)
             O (  1)   H (  2)
   H (  2)  0.961948
   H (  3)  0.962554  1.530174
 
 Requested basis set is def2-SVPD
 There are 17 shells and 39 basis functions
 A cutoff of  1.0D-14 yielded    153 shell pairs
 There are       821 function pairs (       912 Cartesian)
 Smallest overlap matrix eigenvalue = 5.34E-03
 Guess MOs from SCF MO coefficient file

 -----------------------------------------------------------------------
  General SCF calculation program by
  Eric Jon Sundstrom, Paul Horn, Yuezhi Mao, Dmitri Zuev, Alec White,
  David Stuck, Shaama M.S., Shane Yost, Joonho Lee, David Small,
  Daniel Levine, Susi Lehtola, Hugh Burton, Evgeny Epifanovsky,
  Bang C. Huynh
 -----------------------------------------------------------------------
 Exchange:     0.1670 Hartree-Fock + 1.0000 wB97X-V + LR-HF
 Correlation:  1.0000 wB97X-V
 Using Euler-Maclaurin-Lebedev (75,302) quadrature formula
 Nonlocal Correlation:  VV10 with C = 0.0100 and b = 6.00 and scale = 1.00000
 Grid used for NLC:  SG-1 standard quadrature
 A restricted SCF calculation will be
 performed using DIIS
 SCF converges when DIIS error is below 1.0e-09
 ---------------------------------------
  Cycle       Energy         DIIS error
 ---------------------------------------
    1     -76.3493241615      4.26e-05  
    2     -76.3493245058      8.24e-06  
    3     -76.3493245206      5.24e-06  
    4     -76.3493245245      1.49e-06  
    5     -76.3493245250      2.48e-07  
    6     -76.3493245251      4.74e-08  
    7     -76.3493245251      8.58e-09  
    8     -76.3493245251      2.30e-09  
    9     -76.3493245251      4.39e-10  Convergence criterion met
 ---------------------------------------
 SCF time:   CPU 19.11s  wall 2.00s 
 SCF   energy =   -76.34932453
 Total energy =   -76.34932453
 
 --------------------------------------------------------------
 
                    Orbital Energies (a.u.)
 --------------------------------------------------------------
 
 Alpha MOs
 -- Occupied --
-19.2368  -1.1326  -0.6504  -0.5048  -0.4318
 -- Virtual --
  0.0760   0.1339   0.1823   0.1826   0.2383   0.2656   0.3060   0.3276
  0.3546   0.4313   0.4352   0.4719   0.6067   0.6219   0.6637   0.6988
  0.7022   1.0084   1.1231   1.3105   1.3252   1.6270   1.7291   1.7676
  1.9233   2.0440   2.0467   2.3555   2.4747   3.1020   3.1626   3.3033
  3.7338   4.1381
 --------------------------------------------------------------
 
          Ground-State Mulliken Net Atomic Charges

     Atom                 Charge (a.u.)
  ----------------------------------------
      1 O                    -0.266619
      2 H                     0.133030
      3 H                     0.133589
  ----------------------------------------
  Sum of atomic charges =     0.000000

 -----------------------------------------------------------------
                    Cartesian Multipole Moments
 -----------------------------------------------------------------
    Charge (ESU x 10^10)
                -0.0000
    Dipole Moment (Debye)
         X      -0.0003      Y      -0.0000      Z      -1.9043
       Tot       1.9043
    Quadrupole Moments (Debye-Ang)
        XX      -4.4740     XY      -0.0000     YY      -7.8145
        XZ      -0.0017     YZ       0.0000     ZZ      -6.5030
    Octopole Moments (Debye-Ang^2)
       XXX      -0.0008    XXY      -0.0000    XYY      -0.0003
       YYY      -0.0000    XXZ      -1.3150    XYZ       0.0000
       YYZ      -0.2357    XZZ       0.0011    YZZ      -0.0000
       ZZZ      -1.0791
    Hexadecapole Moments (Debye-Ang^3)
      XXXX      -6.7569   XXXY      -0.0000   XXYY      -2.7520
      XYYY      -0.0000   YYYY      -7.9527   XXXZ      -0.0001
      XXYZ       0.0000   XYYZ       0.0004   YYYZ       0.0000
      XXZZ      -2.2249   XYZZ      -0.0000   YYZZ      -2.7256
      XZZZ       0.0000   YZZZ       0.0000   ZZZZ      -8.1334
 -----------------------------------------------------------------
 Calculating analytic gradient of the SCF energy
 Gradient of SCF Energy
            1           2           3
    1  -0.0005113   0.0004651   0.0000462
    2   0.0000000  -0.0000000  -0.0000000
    3  -0.0004587   0.0004243   0.0000344
 Max gradient component =       5.113E-04
 RMS gradient           =       3.112E-04
 Gradient time:  CPU 5.24 s  wall 0.66 s
 ----------------------------------------------------------------
             Standard Nuclear Orientation (Angstroms)
    I     Atom           X                Y                Z
 ----------------------------------------------------------------
    1      O       0.0000000000     0.0000000000     0.1168165207
    2      H      -0.7650869966    -0.0000000000    -0.4682660829
    3      H       0.7650869966     0.0000000000    -0.4672660829
 ----------------------------------------------------------------
 Nuclear Repulsion Energy =           9.13927238 hartrees
 There are        5 alpha and        5 beta electrons

                       Distance Matrix (Angstroms)
             O (  1)   H (  2)
   H (  2)  0.963161
   H (  3)  0.962554  1.530174
 
 Requested basis set is def2-SVPD
 There are 17 shells and 39 basis functions
 A cutoff of  1.0D-14 yielded    153 shell pairs
 There are       821 function pairs (       912 Cartesian)
 Smallest overlap matrix eigenvalue = 5.34E-03
 Guess MOs from SCF MO coefficient file

 -----------------------------------------------------------------------
  General SCF calculation program by
  Eric Jon Sundstrom, Paul Horn, Yuezhi Mao, Dmitri Zuev, Alec White,
  David Stuck, Shaama M.S., Shane Yost, Joonho Lee, David Small,
  Daniel Levine, Susi Lehtola, Hugh Burton, Evgeny Epifanovsky,
  Bang C. Huynh
 -----------------------------------------------------------------------
 Exchange:     0.1670 Hartree-Fock + 1.0000 wB97X-V + LR-HF
 Correlation:  1.0000 wB97X-V
 Using Euler-Maclaurin-Lebedev (75,302) quadrature formula
 Nonlocal Correlation:  VV10 with C = 0.0100 and b = 6.00 and scale = 1.00000
 Grid used for NLC:  SG-1 standard quadrature
 A restricted SCF calculation will be
 performed using DIIS
 SCF converges when DIIS error is below 1.0e-09
 ---------------------------------------
  Cycle       Energy         DIIS error
 ---------------------------------------
    1     -76.3493237864      6.50e-05  
    2     -76.3493245289      1.34e-05  
    3     -76.3493245570      9.50e-06  
    4     -76.3493245696      2.25e-06  
    5     -76.3493245706      3.26e-07  
    6     -76.3493245707      5.97e-08  
    7     -76.3493245707      9.81e-09  
    8     -76.3493245707      2.24e-09  
    9     -76.3493245707      3.42e-10  Convergence criterion met
 ---------------------------------------
 SCF time:   CPU 16.32s  wall 2.00s 
 SCF   energy =   -76.34932457
 Total energy =   -76.34932457
 
 --------------------------------------------------------------
 
                    Orbital Energies (a.u.)
 --------------------------------------------------------------
 
 Alpha MOs
 -- Occupied --
-19.2369  -1.1324  -0.6500  -0.5049  -0.4318
 -- Virtual --
  0.0760   0.1339   0.1823   0.1826   0.2381   0.2656   0.3061   0.3274
  0.3544   0.4311   0.4353   0.4717   0.6066   0.6220   0.6639   0.6989
  0.7022   1.0078   1.1226   1.3102   1.3251   1.6270   1.7288   1.7674
  1.9232   2.0440   2.0464   2.3539   2.4736   3.1020   3.1619   3.3028
  3.7323   4.1374
 --------------------------------------------------------------
 
          Ground-State Mulliken Net Atomic Charges

     Atom                 Charge (a.u.)
  ----------------------------------------
      1 O                    -0.267634
      2 H                     0.134096
      3 H                     0.133538
  ----------------------------------------
  Sum of atomic charges =     0.000000

 -----------------------------------------------------------------
                    Cartesian Multipole Moments
 -----------------------------------------------------------------
    Charge (ESU x 10^10)
                -0.0000
    Dipole Moment (Debye)
         X       0.0003      Y      -0.0000      Z      -1.9061
       Tot       1.9061
    Quadrupole Moments (Debye-Ang)
        XX      -4.4766     XY      -0.0000     YY      -7.8159
        XZ       0.0017     YZ       0.0000     ZZ      -6.4997
    Octopole Moments (Debye-Ang^2)
       XXX       0.0008    XXY      -0.0000    XYY       0.0003
       YYY      -0.0000    XXZ      -1.3155    XYZ       0.0000
       YYZ      -0.2338    XZZ      -0.0011    YZZ      -0.0000
       ZZZ      -1.0761
    Hexadecapole Moments (Debye-Ang^3)
      XXXX      -6.7641   XXXY      -0.0000   XXYY      -2.7534
      XYYY      -0.0000   YYYY      -7.9550   XXXZ       0.0001
      XXYZ       0.0000   XYYZ      -0.0004   YYYZ       0.0000
      XXZZ      -2.2243   XYZZ      -0.0000   YYZZ      -2.7270
      XZZZ      -0.0000   YZZZ       0.0000   ZZZZ      -8.1372
 -----------------------------------------------------------------
 Calculating analytic gradient of the SCF energy
 Gradient of SCF Energy
            1           2           3
    1   0.0005091  -0.0004463  -0.0000627
    2   0.0000000  -0.0000000  -0.0000000
    3   0.0004102  -0.0003998  -0.0000104
 Max gradient component =       5.091E-04
 RMS gradient           =       2.964E-04
 Gradient time:  CPU 5.42 s  wall 0.69 s
Dipole drv :
gprntSymmMtrx error report: 
 Final Hessian.
            1           2           3           4           5           6
    1   0.7071249   0.0000000   0.0000000  -0.3535624   0.0000000  -0.2699865
    2   0.0000000   0.0000592  -0.0000000   0.0000000  -0.0000296  -0.0000000
    3   0.0000000  -0.0000000   0.4597759  -0.2123487   0.0000000  -0.2298880
    4  -0.3535624   0.0000000  -0.2123487   0.3819475   0.0000000   0.2411676
    5   0.0000000  -0.0000296   0.0000000   0.0000000   0.0000296  -0.0000000
    6  -0.2699865  -0.0000000  -0.2298880   0.2411676  -0.0000000   0.2180436
    7  -0.3535624   0.0000000   0.2123487  -0.0283851   0.0000000   0.0288189
    8   0.0000000  -0.0000296   0.0000000   0.0000000   0.0000001   0.0000000
    9   0.2699865   0.0000000  -0.2298880  -0.0288189   0.0000000   0.0118444
            7           8           9
    1  -0.3535624   0.0000000   0.2699865
    2   0.0000000  -0.0000296   0.0000000
    3   0.2123487   0.0000000  -0.2298880
    4  -0.0283851   0.0000000  -0.0288189
    5   0.0000000   0.0000001   0.0000000
    6   0.0288189   0.0000000   0.0118444
    7   0.3819475   0.0000000  -0.2411676
    8   0.0000000   0.0000296   0.0000000
    9  -0.2411676   0.0000000   0.2180436
 ----------------------------------------------------------------
             Standard Nuclear Orientation (Angstroms)
    I     Atom           X                Y                Z
 ----------------------------------------------------------------
    1      O       0.0000000000     0.0000000000     0.1168165207
    2      H      -0.7650869966    -0.0000000000    -0.4672660829
    3      H       0.7650869966     0.0000000000    -0.4672660829
 ----------------------------------------------------------------
 Nuclear Repulsion Energy =           9.14204482 hartrees
 There are        5 alpha and        5 beta electrons
 old dipole drv.
            1           2           3           4           5           6
    1  -0.5410482  -0.0000002  -0.0000000   0.2705241   0.0000000  -0.0526998
    2  -0.0000000  -0.6791086   0.0000004   0.0000000   0.3395556  -0.0000005
    3   0.0000000   0.0000000  -0.3841518  -0.0634756   0.0000000   0.1920756
            7           8           9
    1   0.2705241   0.0000000   0.0526998
    2   0.0000000   0.3395556   0.0000005
    3   0.0634756   0.0000000   0.1920756
 New transposed dipole drv.
            1           2           3
    1  -0.5410482  -0.0000000   0.0000000
    2  -0.0000002  -0.6791086   0.0000000
    3  -0.0000000   0.0000004  -0.3841518
    4   0.2705241   0.0000000  -0.0634756
    5   0.0000000   0.3395556   0.0000000
    6  -0.0526998  -0.0000005   0.1920756
    7   0.2705241   0.0000000   0.0634756
    8   0.0000000   0.3395556   0.0000000
    9   0.0526998   0.0000005   0.1920756
FINAL TENSOR RESULT:
Order 2, Length 9
    Atom      X          Y          Z
     1 Order 1, Length 9
    Atom      X          Y          Z
     1    7.071249329077554e-01   4.567058837493695e-08   0.000000000000000e+00
     2   -3.535624434778704e-01   0.000000000000000e+00  -2.699865337853891e-01
     3   -3.535624434778704e-01   0.000000000000000e+00   2.699865337853891e-01

Order 1, Length 9
    Atom      X          Y          Z
     1    4.567058837493695e-08   5.916437992813648e-05  -6.042473833616671e-09
     2    0.000000000000000e+00  -2.962612126450957e-05  -1.699511524486756e-09
     3    0.000000000000000e+00  -2.962612126450957e-05   1.699511524486756e-09

Order 1, Length 9
    Atom      X          Y          Z
     1    0.000000000000000e+00  -6.042473833616671e-09   4.597758873565394e-01
     2   -2.123487268315536e-01   0.000000000000000e+00  -2.298879854527784e-01
     3    2.123487268269417e-01   0.000000000000000e+00  -2.298879854484639e-01


     2 Order 1, Length 9
    Atom      X          Y          Z
     1   -3.535624434778704e-01   0.000000000000000e+00  -2.123487268315536e-01
     2    3.819475240890661e-01   0.000000000000000e+00   2.411676034143238e-01
     3   -2.838510358860736e-02   0.000000000000000e+00  -2.881888043875825e-02

Order 1, Length 9
    Atom      X          Y          Z
     1    0.000000000000000e+00  -2.962612126450957e-05   0.000000000000000e+00
     2    0.000000000000000e+00   2.960198303142732e-05  -9.426140353859083e-09
     3    0.000000000000000e+00   6.806953375486589e-08   2.035273371395221e-08

Order 1, Length 9
    Atom      X          Y          Z
     1   -2.699865337853891e-01  -1.699511524486756e-09  -2.298879854527784e-01
     2    2.411676034143238e-01  -9.426140353859083e-09   2.180436436272811e-01
     3    2.881888043875825e-02   0.000000000000000e+00   1.184438359554095e-02


     3 Order 1, Length 9
    Atom      X          Y          Z
     1   -3.535624434778704e-01   0.000000000000000e+00   2.123487268269417e-01
     2   -2.838510358860736e-02   0.000000000000000e+00   2.881888043875825e-02
     3    3.819475240890661e-01   0.000000000000000e+00  -2.411676034143238e-01

Order 1, Length 9
    Atom      X          Y          Z
     1    0.000000000000000e+00  -2.962612126450957e-05   0.000000000000000e+00
     2    0.000000000000000e+00   6.806953375486589e-08   0.000000000000000e+00
     3    0.000000000000000e+00   2.960198303142732e-05   9.426140353859083e-09

Order 1, Length 9
    Atom      X          Y          Z
     1    2.699865337853891e-01   1.699511524486756e-09  -2.298879854484639e-01
     2   -2.881888043875825e-02   2.035273371395221e-08   1.184438359554095e-02
     3   -2.411676034143238e-01   9.426140353859083e-09   2.180436436272811e-01





 ###########################################
 # Finishing finite difference calculation #
 ###########################################

 Requested basis set is def2-SVPD
 There are 17 shells and 39 basis functions
 **********************************************************************
 **                                                                  **
 **                       VIBRATIONAL ANALYSIS                       **
 **                       --------------------                       **
 **                                                                  **
 **        VIBRATIONAL FREQUENCIES (CM**-1) AND NORMAL MODES         **
 **     FORCE CONSTANTS (mDYN/ANGSTROM) AND REDUCED MASSES (AMU)     **
 **                  INFRARED INTENSITIES (KM/MOL)                   **
 **                                                                  **
 **********************************************************************
 

 Mode:                 1                      2                      3
 Frequency:      1593.75                3873.73                3980.49
 Force Cnst:      1.6203                 9.2405                10.1067
 Red. Mass:       1.0827                 1.0452                 1.0826
 IR Active:          YES                    YES                    YES
 IR Intens:       79.367                  8.796                 79.134
 Raman Active:       YES                    YES                    YES
               X      Y      Z        X      Y      Z        X      Y      Z
 O          0.000  0.000 -0.071   -0.000 -0.000  0.050   -0.071 -0.000 -0.000
 H         -0.428 -0.000  0.561   -0.585 -0.000 -0.396    0.561  0.000  0.428
 H          0.428  0.000  0.561    0.585  0.000 -0.396    0.561  0.000 -0.428
 TransDip   0.000 -0.000  0.285    0.000  0.000 -0.095    0.285 -0.000  0.000

 STANDARD THERMODYNAMIC QUANTITIES AT   298.15 K  AND     1.00 ATM

   This Molecule has  0 Imaginary Frequencies
   Zero point vibrational energy:       13.507 kcal/mol

   Atom    1 Element O  Has Mass   15.99491
   Atom    2 Element H  Has Mass    1.00783
   Atom    3 Element H  Has Mass    1.00783
   Molecular Mass:    18.010570 amu
   Principal axes and moments of inertia in amu*Bohr^2:
                             1           2           3
    Eigenvalues --        2.18081     4.21344     6.39425
          X              -1.00000     0.00000    -0.00000
          Y              -0.00000     0.00000     1.00000
          Z              -0.00000     1.00000     0.00000
   Rotational Symmetry Number is   2
   The Molecule is an Asymmetric Top
   Translational Enthalpy:        0.889 kcal/mol
   Rotational Enthalpy:           0.889 kcal/mol
   Vibrational Enthalpy:         13.509 kcal/mol
   gas constant (RT):             0.592 kcal/mol
   Translational Entropy:        34.608  cal/mol.K
   Rotational Entropy:           10.473  cal/mol.K
   Vibrational Entropy:           0.008  cal/mol.K

   Total Enthalpy:               15.879 kcal/mol
   Total Entropy:                45.089  cal/mol.K

   Quasi-RRHO corrections using alpha = 4, and omega = 100 cm^-1
   QRRHO-Vib. Enthalpy:          13.509 kcal/mol
   QRRHO-Vib. Entropy:            0.008  cal/mol.K
   QRRHO-Total Enthalpy:         15.879 kcal/mol
   QRRHO-Total Entropy:          45.089  cal/mol.K
 Total job time:  46.28s(wall), 246.55s(cpu) 
 Wed May 29 16:11:45 2024

        *************************************************************
        *                                                           *
        *  Thank you very much for using Q-Chem.  Have a nice day.  *
        *                                                           *
        *************************************************************


