                  Welcome to Q-Chem
     A Quantum Leap Into The Future Of Chemistry


 Q-Chem 6.2 (devel), Q-Chem, Inc., Pleasanton, CA (2024)

 E. Epifanovsky,  A. T. B. Gilbert,  Xintian Feng,  Joonho Lee,  Yuezhi Mao,  
 N. Mardirossian,  P. Pokhilko,  A. White,  M. Wormit,  M. P. Coons,  
 A. L. Dempwolff,  Zhengting Gan,  D. Hait,  P. R. Horn,  L. D. Jacobson,  
 I. Kaliman,  J. Kussmann,  A. W. Lange,  Ka Un Lao,  D. S. Levine,  Jie Liu,  
 S. C. McKenzie,  A. F. Morrison,  K. D. Nanda,  F. Plasser,  D. R. Rehn,  
 M. L. Vidal,  Zhi-Qiang You,  Ying Zhu,  Huseyin Aksu,  B. Alam,  
 B. Albrecht,  A. Aldossary,  E. Alguire,  J. H. Andersen,  
 J. E. Arias-Martinez,  V. Athavale,  D. Barton,  K. Begam,  A. Behn,  
 N. Bellonzi,  Y. A. Bernard,  E. J. Berquist,  H. Burton,  A. Carreras,  
 K. Carter-Fenk,  Mathew Chow,  Romit Chakraborty,  Chandrima Chakravarty,  
 Junhan Chen,  A. D. Chien,  K. D. Closser,  V. Cofer-Shabica,  L. Cunha,  
 S. Dasgupta,  Jia Deng,  Joseph Dickinson,  M. de Wergifosse,  
 M. Diedenhofen,  Hainam Do,  Wenjie Dou,  S. Ehlert,  Po-Tung Fang,  
 S. Fatehi,  Qingguo Feng,  Jonathan Fetherolf,  T. Friedhoff,  
 Thomas Froitzheim,  Sarai Folkestad,  B. Ganoe,  J. Gayvert,  Qinghui Ge,  
 G. Gidofalvi,  M. Gimferrer,  M. Goldey,  Montgomery Gray,  J. Gomes,  
 C. Gonzalez-Espinoza,  S. Gulania,  A. Gunina,  J. A. Gyamfi,  
 M. W. D. Hanson-Heine,  P. H. P. Harbach,  A. W. Hauser,  M. F. Herbst,  
 M. Hernandez Vera,  M. Hodecker,  Z. C. Holden,  S. Houck,  Xunkun Huang,  
 Kerwin Hui,  B. C. Huynh,  K. Ikeda,  M. Ivanov,  Nayanthara K. Jayadev,  
 Hyunjun Ji,  Zuxin Jin,  Hanjie Jiang,  Subrata Jana,  B. Kaduk,  
 S. Kaehler,  R. Kang,  K. Khistyaev,  Jaehoon Kim,  Yongbin Kim,  
 P. Klunzinger,  Z. Koczor-Benda,  Joong Hoon Koh,  D. Kosenkov,  
 Saikiran Kotaru,  L. Koulias,  T. Kowalczyk,  C. M. Krauter,  K. Kue,  
 A. Kunitsa,  T. Kus,  A. Landau,  K. V. Lawler,  D. Lefrancois,  S. Lehtola,  
 Rain Li,  Shaozhi Li,  Tao E. Li,  Yi-Pei Li,  Jiashu Liang,  M. Liebenthal,  
 Hung-Hsuan Lin,  You-Sheng Lin,  Fenglai Liu,  Kuan-Yu Liu,  Xiao Liu,  
 M. Loipersberger,  A. Luenser,  C. Malbon,  Aniket Mandal,  Manisha,  
 A. Manjanath,  P. Manohar,  E. Mansoor,  S. F. Manzer,  Shan-Ping Mao,  
 A. V. Marenich,  T. Markovich,  S. Mason,  F. Matz,  S. A. Maurer,  
 Samuel May,  Alexandra McIsaac,  P. F. McLaughlin,  M. F. S. J. Menger,  
 J.-M. Mewes,  S. A. Mewes,  P. Morgante,  Mohammad Mostafanejad,  
 Madhubani Mukherjee,  J. W. Mullinax,  Quyen Nguyen,  Avik Kumar Ojha,  
 K. J. Oosterbaan,  Eno Paenurk,  Xiaoliang Pan,  G. Paran,  V. Parravicini,  
 Alexander C. Paul,  Suranjan K. Paul,  F. Pavosevic,  Zheng Pei,  S. Prager,  
 E. I. Proynov,  E. Ramos,  B. Rana,  A. E. Rask,  A. Rettig,  R. M. Richard,  
 F. Rob,  E. Rossomme,  T. Scheele,  M. Scheurer,  M. Schneider,  
 P. E. Schneider,  Tim K. Schramm,  N. Sergueev,  S. M. Sharada,  
 Hengyuan Shen,  W. Skomorowski,  D. W. Small,  C. J. Stein,  
 Alistair J. Sterling,  Yingli Su,  Yu-Chuan Su,  E. J. Sundstrom,  
 J. Talbot,  Zhen Tao,  J. Thirman,  Hung-Yi Tsai,  T. Tsuchimochi,  
 N. M. Tubman,  C. Utku,  S. P. Veccham,  O. Vydrov,  Rahel Weiss,  
 J. Wenzel,  Jonathan Wong,  J. Witte,  H. Wu,  Yanze Wu,  A. Yamada,  
 Chou-Hsun Yang,  Kun Yao,  S. Yeganeh,  S. R. Yost,  Qi Yu,  A. Zech,  
 F. Zeller,  Chongxiao Zhao,  Igor Ying Zhang,  Xing Zhang,  Yu Zhang,  
 D. Zuev,  A. Aspuru-Guzik,  A. T. Bell,  N. A. Besley,  K. B. Bravaya,  
 B. R. Brooks,  D. Casanova,  Jeng-Da Chai,  Hsing-Ta Chen,  S. Coriani,  
 C. J. Cramer,  A. E. DePrince, III,  R. A. DiStasio Jr.,  A. Dreuw,  
 B. D. Dunietz,  T. R. Furlani,  W. A. Goddard III,  S. Grimme,  
 S. Hammes-Schiffer,  T. Head-Gordon,  W. J. Hehre,  Chao-Ping Hsu,  
 T.-C. Jagau,  Yousung Jung,  A. Klamt,  Jing Kong,  D. S. Lambrecht,  
 Xiangyuan Li,  WanZhen Liang,  N. J. Mayhall,  C. W. McCurdy,  J. B. Neaton,  
 T. Neudecker,  C. Ochsenfeld,  J. A. Parkhill,  R. Peverati,  
 V. A. Rassolov,  Haisheng Ren,  Yihan Shao,  L. V. Slipchenko,  
 R. P. Steele,  J. E. Subotnik,  A. J. W. Thom,  A. Tkatchenko,  
 D. G. Truhlar,  T. Van Voorhis,  Fan Wang,  T. A. Wesolowski,  K. B. Whaley,  
 H. L. Woodcock III,  P. M. Zimmerman,  S. Faraji,  P. M. W. Gill,  
 M. Head-Gordon,  J. M. Herbert,  A. I. Krylov

 Contributors to earlier versions of Q-Chem not listed above: 
 R. D. Adamson,  B. Austin,  R. Baer,  J. Baker,  G. J. O. Beran,  
 K. Brandhorst,  S. T. Brown,  E. F. C. Byrd,  Arup K. Chakraborty,  
 G. K. L. Chan,  Chun-Min Chang,  Yunqing Chen,  C.-L. Cheng,  
 Siu Hung Chien,  D. M. Chipman,  D. L. Crittenden,  H. Dachsel,  
 R. J. Doerksen,  A. D. Dutoi,  R. G. Edgar,  J. Fosso-Tande,  
 L. Fusti-Molnar,  D. Ghosh,  A. Ghysels,  A. Golubeva-Zadorozhnaya,  
 J. Gonthier,  M. S. Gordon,  S. R. Gwaltney,  G. Hawkins,  J. E. Herr,  
 A. Heyden,  S. Hirata,  E. G. Hohenstein,  G. Kedziora,  F. J. Keil,  
 C. Kelley,  Jihan Kim,  R. A. King,  R. Z. Khaliullin,  P. P. Korambath,  
 W. Kurlancheek,  A. Laurent,  A. M. Lee,  M. S. Lee,  S. V. Levchenko,  
 Ching Yeh Lin,  D. Liotard,  E. Livshits,  R. C. Lochan,  I. Lotan,  
 L. A. Martinez-Martinez,  P. E. Maslen,  N. Nair,  D. P. O'Neill,  
 D. Neuhauser,  E. Neuscamman,  C. M. Oana,  R. Olivares-Amaya,  R. Olson,  
 T. M. Perrine,  B. Peters,  P. A. Pieniazek,  A. Prociuk,  Y. M. Rhee,  
 J. Ritchie,  M. A. Rohrdanz,  E. Rosta,  N. J. Russ,  H. F. Schaefer III,  
 M. W. Schmidt,  N. E. Schultz,  S. Sharma,  N. Shenvi,  C. D. Sherrill,  
 A. C. Simmonett,  A. Sodt,  T. Stein,  D. Stuck,  K. S. Thanthiriwatte,  
 V. Vanovschi,  L. Vogt,  Tao Wang,  A. Warshel,  M. A. Watson,  
 C. F. Williams,  Q. Wu,  X. Xu,  Jun Yang,  W. Zhang,  Yan Zhao

   Please cite Q-Chem as follows:
  "Software for the frontiers of quantum chemistry:
   An overview of developments in the Q-Chem 5 package"
   J. Chem. Phys. 155, 084801 (2021)
   https://doi.org/10.1063/5.0055522 (open access)

 Q-Chem 6.2.0 for Intel X86 EM64T Linux

 Parts of Q-Chem use Armadillo 9.900.5 (Nocturnal Misbehaviour).
 http://arma.sourceforge.net/

 Q-Chem begins on Wed May 29 16:10:58 2024  

 Host: 
0

     Scratch files written to /data/scratch/water_dimer_adiabatic_eda20240529161054//
 Processing $rem in /home/ymao/my_qchem/qchem_ymao_quick_fix/config/preferences:
 Processing $rem in /home/ymao/.qchemrc:

 Checking the input file for inconsistencies... 	...done.

--------------------------------------------------------------
User input:
--------------------------------------------------------------
$molecule
0 1
--
0 1
O    -1.51598   -0.11939   0.00000   
H    -1.92502   0.75089    0.00000   
H    -0.55962   0.04345    0.00000   
--
0 1
O    1.37714    0.09749    0.00000   
H    1.75572    -0.34454   0.76773   
H    1.75572    -0.34454   -0.76773  
$end

$rem
JOBTYPE  OPT
GEN_SCFMAN  TRUE
METHOD  WB97X-V
BASIS  DEF2-SVPD
UNRESTRICTED  FALSE
MAX_SCF_CYCLES  2000
THRESH  14
SCF_CONVERGENCE  9
MEM_TOTAL  8000
MEM_STATIC  2000
SCF_GUESS  FRAGMO
SYMMETRY  FALSE
SYM_IGNORE  FALSE
SCF_ALGORITHM  DIIS
BASIS_LIN_DEP_THRESH  6
IDERIV  1
XC_GRID  000075000302
NL_GRID  1
FD_MAT_VEC_PROD  FALSE
GEOM_OPT_TOL_GRADIENT  50
GEOM_OPT_TOL_DISPLACEMENT  50
GEOM_OPT_TOL_ENERGY  10
GEOM_OPT_DRIVER  OPTIMIZE
GEOM_OPT_MAX_CYCLES  200
$end

--------------------------------------------------------------
 ----------------------------------------------------------------
             Standard Nuclear Orientation (Angstroms)
    I     Atom           X                Y                Z
 ----------------------------------------------------------------
    1      O      -1.5113455729     0.1214767848     0.0000000000
    2      H      -1.9235976226    -0.7472862713    -0.0000000000
    3      H      -0.5555936340    -0.0448949267    -0.0000000000
    4      O       1.3809535262    -0.1060890077    -0.0000000000
    5      H       1.7611638153     0.3345394905    -0.7677300000
    6      H       1.7611638153     0.3345394905     0.7677300000
 ----------------------------------------------------------------
 Molecular Point Group                 Cs    NOp =  2
 Largest Abelian Subgroup              Cs    NOp =  2
 Nuclear Repulsion Energy =          36.57210562 hartrees
 There are       10 alpha and       10 beta electrons
 Requested basis set is def2-SVPD
 There are 34 shells and 78 basis functions

 Total QAlloc Memory Limit   8000 MB
 Mega-Array Size      1956 MB
 MEM_STATIC part      2000 MB

 A cutoff of  1.0D-14 yielded    594 shell pairs
 There are      3162 function pairs (      3504 Cartesian)
 Smallest overlap matrix eigenvalue = 1.55E-03

 Scale SEOQF with 1.000000e-01/1.000000e-01/1.000000e-01

 Standard Electronic Orientation quadrupole field applied
 Nucleus-field energy     =     0.0000000015 hartrees
 Attempting to make child job directory: /data/scratch/water_dimer_adiabatic_eda20240529161054//Frg1/
 Attempting to make child job directory: /data/scratch/water_dimer_adiabatic_eda20240529161054//Frg2/
 Creating input file /data/scratch/water_dimer_adiabatic_eda20240529161054/Frg1.input
 using default PutDataFrgm: nothing
 calling putenv with: QCSCRATCH=/data/scratch/water_dimer_adiabatic_eda20240529161054/ 
 Spawning Job For Fragment 0
 Done Job For Fragment 0
 calling putenv with: QCSCRATCH=/data/scratch 
 calling putenv with: QCTHREADS=16 
 Creating input file /data/scratch/water_dimer_adiabatic_eda20240529161054/Frg2.input
 using default PutDataFrgm: nothing
 calling putenv with: QCSCRATCH=/data/scratch/water_dimer_adiabatic_eda20240529161054/ 
 Spawning Job For Fragment 1
 Done Job For Fragment 1
 calling putenv with: QCSCRATCH=/data/scratch 
 calling putenv with: QCTHREADS=16 
 Time for running child jobs:  CPU 1.69 s  wall 10.83 s

 -----------------------------------------------------------------------
  General SCF calculation program by
  Eric Jon Sundstrom, Paul Horn, Yuezhi Mao, Dmitri Zuev, Alec White,
  David Stuck, Shaama M.S., Shane Yost, Joonho Lee, David Small,
  Daniel Levine, Susi Lehtola, Hugh Burton, Evgeny Epifanovsky,
  Bang C. Huynh
 -----------------------------------------------------------------------
 Exchange:     0.1670 Hartree-Fock + 1.0000 wB97X-V + LR-HF
 Correlation:  1.0000 wB97X-V
 Using Euler-Maclaurin-Lebedev (75,302) quadrature formula
 Nonlocal Correlation:  VV10 with C = 0.0100 and b = 6.00 and scale = 1.00000
 Grid used for NLC:  SG-1 standard quadrature
 using 16 threads for integral computing
 -------------------------------------------------------
 OpenMP Integral computing Module                
 Release: version 1.0, May 2013, Q-Chem Inc. Pittsburgh 
 -------------------------------------------------------
 A restricted SCF calculation will be
 performed using DIIS
 SCF converges when DIIS error is below 1.0e-09
 ---------------------------------------
  Cycle       Energy         DIIS error
 ---------------------------------------
    1    -152.7022681784      2.24e-03  
    2    -152.7071971556      3.98e-04  
    3    -152.7074900646      1.14e-04  
    4    -152.7075061046      6.74e-05  
    5    -152.7075092070      1.80e-05  
    6    -152.7075095169      2.09e-06  
    7    -152.7075095288      3.59e-07  
    8    -152.7075095290      2.73e-07  
    9    -152.7075095290      3.61e-08  
   10    -152.7075095290      7.19e-09  
   11    -152.7075095290      1.16e-09  
   12    -152.7075095290      2.26e-10  Convergence criterion met
 ---------------------------------------
 SCF time:   CPU 70.19s  wall 6.00s 
 SCF   energy =  -152.70750953
 Total energy =  -152.70750953
 
 --------------------------------------------------------------
             Orbital Energies (a.u.) and Symmetries
 --------------------------------------------------------------
 
 Alpha MOs, Restricted
 -- Occupied --                  
-19.263 -19.206  -1.159  -1.101  -0.676  -0.626  -0.536  -0.478
  1 A'    2 A'    3 A'    4 A'    1 A"    5 A'    6 A'    7 A'                 
 -0.455  -0.404
  8 A'    2 A"                                                                 
 -- Virtual --                   
  0.061   0.109   0.121   0.149   0.174   0.192   0.210   0.230
  9 A'   10 A'    3 A"   11 A'   12 A'    4 A"   13 A'   14 A'                 
  0.239   0.268   0.288   0.291   0.315   0.336   0.359   0.392
  5 A"   15 A'    6 A"   16 A'   17 A'   18 A'    7 A"   19 A'                 
  0.419   0.437   0.448   0.449   0.484   0.490   0.500   0.605
  8 A"   20 A'   21 A'    9 A"   10 A"   22 A'   23 A'   24 A'                 
  0.610   0.641   0.678   0.684   0.684   0.724   0.748   0.759
 11 A"   25 A'   26 A'   27 A'   12 A"   13 A"   28 A'   14 A"                 
  0.779   0.865   1.041   1.067   1.107   1.176   1.314   1.435
 29 A'   30 A'   31 A'   32 A'   15 A"   33 A'   34 A'   35 A'                 
  1.437   1.617   1.617   1.668   1.737   1.796   1.845   1.864
 16 A"   17 A"   36 A'   37 A'   38 A'   18 A"   19 A"   39 A'                 
  1.972   2.024   2.059   2.063   2.122   2.167   2.335   2.451
 40 A'   20 A"   41 A'   21 A"   42 A'   43 A'   22 A"   44 A'                 
  2.477   2.606   3.120   3.127   3.140   3.206   3.292   3.339
 45 A'   46 A'   47 A'   23 A"   24 A"   25 A"   48 A'   49 A'                 
  3.726   3.806   4.111   4.198
 50 A'   51 A'   26 A"   52 A'                                                 
 
 Beta MOs, Restricted
 -- Occupied --                  
-19.263 -19.206  -1.159  -1.101  -0.676  -0.626  -0.536  -0.478
  1 A'    2 A'    3 A'    4 A'    1 A"    5 A'    6 A'    7 A'                 
 -0.455  -0.404
  8 A'    2 A"                                                                 
 -- Virtual --                   
  0.061   0.109   0.121   0.149   0.174   0.192   0.210   0.230
  9 A'   10 A'    3 A"   11 A'   12 A'    4 A"   13 A'   14 A'                 
  0.239   0.268   0.288   0.291   0.315   0.336   0.359   0.392
  5 A"   15 A'    6 A"   16 A'   17 A'   18 A'    7 A"   19 A'                 
  0.419   0.437   0.448   0.449   0.484   0.490   0.500   0.605
  8 A"   20 A'   21 A'    9 A"   10 A"   22 A'   23 A'   24 A'                 
  0.610   0.641   0.678   0.684   0.684   0.724   0.748   0.759
 11 A"   25 A'   26 A'   27 A'   12 A"   13 A"   28 A'   14 A"                 
  0.779   0.865   1.041   1.067   1.107   1.176   1.314   1.435
 29 A'   30 A'   31 A'   32 A'   15 A"   33 A'   34 A'   35 A'                 
  1.437   1.617   1.617   1.668   1.737   1.796   1.845   1.864
 16 A"   17 A"   36 A'   37 A'   38 A'   18 A"   19 A"   39 A'                 
  1.972   2.024   2.059   2.063   2.122   2.167   2.335   2.451
 40 A'   20 A"   41 A'   21 A"   42 A'   43 A'   22 A"   44 A'                 
  2.477   2.606   3.120   3.127   3.140   3.206   3.292   3.339
 45 A'   46 A'   47 A'   23 A"   24 A"   25 A"   48 A'   49 A'                 
  3.726   3.806   4.111   4.198
 50 A'   51 A'   26 A"   52 A'                                                 
 --------------------------------------------------------------
 
          Ground-State Mulliken Net Atomic Charges

     Atom                 Charge (a.u.)
  ----------------------------------------
      1 O                    -0.247655
      2 H                     0.147547
      3 H                     0.083744
      4 O                    -0.314198
      5 H                     0.165281
      6 H                     0.165281
  ----------------------------------------
  Sum of atomic charges =     0.000000

 -----------------------------------------------------------------
                    Cartesian Multipole Moments
 -----------------------------------------------------------------
    Charge (ESU x 10^10)
                -0.0000
    Dipole Moment (Debye)
         X       2.7594      Y      -0.2232      Z      -0.0000
       Tot       2.7684
    Quadrupole Moments (Debye-Ang)
        XX     -11.1516     XY       6.1574     YY     -13.2411
        XZ       0.0000     YZ      -0.0000     ZZ     -12.2349
    Octopole Moments (Debye-Ang^2)
       XXX       9.2414    XXY      -1.4417    XYY      -1.0460
       YYY      -0.7230    XXZ      -0.0000    XYZ      -0.0000
       YYZ      -0.0000    XZZ       6.4305    YZZ       0.7545
       ZZZ       0.0000
    Hexadecapole Moments (Debye-Ang^3)
      XXXX    -170.5991   XXXY      24.4766   XXYY     -31.3710
      XYYY       4.7794   YYYY     -15.7814   XXXZ       0.0000
      XXYZ      -0.0000   XYYZ       0.0000   YYYZ       0.0000
      XXZZ     -29.0005   XYZZ       2.4591   YYZZ      -5.2013
      XZZZ       0.0000   YZZZ      -0.0000   ZZZZ     -14.7000
 -----------------------------------------------------------------
 Calculating analytic gradient of the SCF energy
 Gradient of SCF Energy
            1           2           3           4           5           6
    1   0.0000282  -0.0000283  -0.0000080   0.0000234  -0.0000077  -0.0000077
    2   0.0000904  -0.0000244  -0.0001010   0.0000166   0.0000092   0.0000092
    3  -0.0000000  -0.0000000  -0.0000000  -0.0000000  -0.0000281   0.0000281
 Max gradient component =       1.010E-04
 RMS gradient           =       3.599E-05
 Gradient time:  CPU 13.71 s  wall 1.12 s
 Geometry Optimization Parameters
   NAtoms,    NIC,     NZ,  NCons,   NDum,   NFix, NCnnct, MaxDiis
        6      25       0       0       0       0       0       0


** GEOMETRY OPTIMIZATION IN DELOCALIZED INTERNAL COORDINATES **
   Searching for a Minimum

   Optimization Cycle:   1

                       Coordinates (Angstroms)
     ATOM                X               Y               Z
      1  O        -1.5113455729    0.1214767848    0.0000000000
      2  H        -1.9235976226   -0.7472862713    0.0000000000
      3  H        -0.5555936340   -0.0448949267    0.0000000000
      4  O         1.3809535262   -0.1060890077    0.0000000000
      5  H         1.7611638153    0.3345394905   -0.7677300000
      6  H         1.7611638153    0.3345394905    0.7677300000
   Point Group: cs    Number of degrees of freedom:     8


   Energy is   -152.707509529


 Attempting to generate delocalized internal coordinates
 Initial Hessian constructed with Jon Baker's OPTIMIZE code

  8 Hessian modes will be used to form the next step
  Hessian Eigenvalues:
     0.047844    0.073968    0.160000    0.160001    0.199780    0.533503
     0.547483    0.551277

 Minimum search - taking simple RFO step
 Searching for Lamda that Minimizes Along All modes
 Value Taken    Lamda =  -0.00000006
 Step Taken.  Stepsize is  0.000556

                             Maximum     Tolerance    Cnvgd?
         Gradient           0.000066      0.000050      NO
         Displacement       0.000373      0.000050      NO
         Energy change     *********      0.000000      NO


 New Cartesian Coordinates Obtained by Inverse Iteration

 Displacement from previous Coordinates is:  0.000720
 ----------------------------------------------------------------
             Standard Nuclear Orientation (Angstroms)
    I     Atom           X                Y                Z
 ----------------------------------------------------------------
    1      O      -1.5114195353     0.1214968694     0.0000000000
    2      H      -1.9233579033    -0.7473791746     0.0000000000
    3      H      -0.5556510857    -0.0447119360     0.0000000000
    4      O       1.3808119265    -0.1060573455     0.0000000000
    5      H       1.7611804625     0.3344685734    -0.7676820184
    6      H       1.7611804625     0.3344685734     0.7676820184
 ----------------------------------------------------------------
 Molecular Point Group                 Cs    NOp =  2
 Largest Abelian Subgroup              Cs    NOp =  2
 Nuclear Repulsion Energy =          36.57301972 hartrees
 There are       10 alpha and       10 beta electrons
 Applying Cartesian multipole field
    Component          Value
    ---------          -----
     (2,0,0)        1.00000E-11
     (0,2,0)        2.00000E-11
     (0,0,2)       -3.00000E-11
 Nucleus-field energy     =     0.0000000015 hartrees
 Requested basis set is def2-SVPD
 There are 34 shells and 78 basis functions
 A cutoff of  1.0D-14 yielded    594 shell pairs
 There are      3162 function pairs (      3504 Cartesian)
 Smallest overlap matrix eigenvalue = 1.55E-03
 Read the previous MOs as SCF guess

 -----------------------------------------------------------------------
  General SCF calculation program by
  Eric Jon Sundstrom, Paul Horn, Yuezhi Mao, Dmitri Zuev, Alec White,
  David Stuck, Shaama M.S., Shane Yost, Joonho Lee, David Small,
  Daniel Levine, Susi Lehtola, Hugh Burton, Evgeny Epifanovsky,
  Bang C. Huynh
 -----------------------------------------------------------------------
 Exchange:     0.1670 Hartree-Fock + 1.0000 wB97X-V + LR-HF
 Correlation:  1.0000 wB97X-V
 Using Euler-Maclaurin-Lebedev (75,302) quadrature formula
 Nonlocal Correlation:  VV10 with C = 0.0100 and b = 6.00 and scale = 1.00000
 Grid used for NLC:  SG-1 standard quadrature
 A restricted SCF calculation will be
 performed using DIIS
 SCF converges when DIIS error is below 1.0e-09
 ---------------------------------------
  Cycle       Energy         DIIS error
 ---------------------------------------
    1    -152.7075095493      6.27e-06  
    2    -152.7075095781      1.05e-06  
    3    -152.7075095793      3.67e-07  
    4    -152.7075095794      2.01e-07  
    5    -152.7075095794      2.83e-08  
    6    -152.7075095794      8.07e-09  
    7    -152.7075095794      5.63e-09  
    8    -152.7075095794      7.68e-10  Convergence criterion met
 ---------------------------------------
 SCF time:   CPU 47.40s  wall 4.00s 
 SCF   energy =  -152.70750958
 Total energy =  -152.70750958
 
 --------------------------------------------------------------
             Orbital Energies (a.u.) and Symmetries
 --------------------------------------------------------------
 
 Alpha MOs, Restricted
 -- Occupied --                  
-19.263 -19.206  -1.159  -1.101  -0.676  -0.626  -0.536  -0.478
  1 A'    2 A'    3 A'    4 A'    1 A"    5 A'    6 A'    7 A'                 
 -0.455  -0.404
  8 A'    2 A"                                                                 
 -- Virtual --                   
  0.061   0.109   0.121   0.149   0.174   0.192   0.210   0.230
  9 A'   10 A'    3 A"   11 A'   12 A'    4 A"   13 A'   14 A'                 
  0.239   0.268   0.288   0.291   0.315   0.336   0.359   0.392
  5 A"   15 A'    6 A"   16 A'   17 A'   18 A'    7 A"   19 A'                 
  0.419   0.437   0.448   0.449   0.484   0.490   0.500   0.605
  8 A"   20 A'   21 A'    9 A"   10 A"   22 A'   23 A'   24 A'                 
  0.610   0.641   0.678   0.684   0.684   0.724   0.748   0.759
 11 A"   25 A'   26 A'   27 A'   12 A"   13 A"   28 A'   14 A"                 
  0.779   0.865   1.041   1.067   1.107   1.176   1.314   1.435
 29 A'   30 A'   31 A'   32 A'   15 A"   33 A'   34 A'   35 A'                 
  1.437   1.617   1.617   1.668   1.737   1.796   1.845   1.864
 16 A"   17 A"   36 A'   37 A'   38 A'   18 A"   19 A"   39 A'                 
  1.972   2.024   2.059   2.063   2.122   2.167   2.335   2.451
 40 A'   20 A"   41 A'   21 A"   42 A'   43 A'   22 A"   44 A'                 
  2.477   2.606   3.120   3.127   3.140   3.206   3.292   3.339
 45 A'   46 A'   47 A'   23 A"   24 A"   25 A"   48 A'   49 A'                 
  3.726   3.806   4.111   4.198
 50 A'   51 A'   26 A"   52 A'                                                 
 
 Beta MOs, Restricted
 -- Occupied --                  
-19.263 -19.206  -1.159  -1.101  -0.676  -0.626  -0.536  -0.478
  1 A'    2 A'    3 A'    4 A'    1 A"    5 A'    6 A'    7 A'                 
 -0.455  -0.404
  8 A'    2 A"                                                                 
 -- Virtual --                   
  0.061   0.109   0.121   0.149   0.174   0.192   0.210   0.230
  9 A'   10 A'    3 A"   11 A'   12 A'    4 A"   13 A'   14 A'                 
  0.239   0.268   0.288   0.291   0.315   0.336   0.359   0.392
  5 A"   15 A'    6 A"   16 A'   17 A'   18 A'    7 A"   19 A'                 
  0.419   0.437   0.448   0.449   0.484   0.490   0.500   0.605
  8 A"   20 A'   21 A'    9 A"   10 A"   22 A'   23 A'   24 A'                 
  0.610   0.641   0.678   0.684   0.684   0.724   0.748   0.759
 11 A"   25 A'   26 A'   27 A'   12 A"   13 A"   28 A'   14 A"                 
  0.779   0.865   1.041   1.067   1.107   1.176   1.314   1.435
 29 A'   30 A'   31 A'   32 A'   15 A"   33 A'   34 A'   35 A'                 
  1.437   1.617   1.617   1.668   1.737   1.796   1.845   1.864
 16 A"   17 A"   36 A'   37 A'   38 A'   18 A"   19 A"   39 A'                 
  1.972   2.024   2.059   2.063   2.122   2.167   2.335   2.451
 40 A'   20 A"   41 A'   21 A"   42 A'   43 A'   22 A"   44 A'                 
  2.477   2.606   3.120   3.127   3.140   3.206   3.292   3.339
 45 A'   46 A'   47 A'   23 A"   24 A"   25 A"   48 A'   49 A'                 
  3.726   3.806   4.111   4.198
 50 A'   51 A'   26 A"   52 A'                                                 
 --------------------------------------------------------------
 
          Ground-State Mulliken Net Atomic Charges

     Atom                 Charge (a.u.)
  ----------------------------------------
      1 O                    -0.247588
      2 H                     0.147503
      3 H                     0.083723
      4 O                    -0.314114
      5 H                     0.165238
      6 H                     0.165238
  ----------------------------------------
  Sum of atomic charges =     0.000000

 -----------------------------------------------------------------
                    Cartesian Multipole Moments
 -----------------------------------------------------------------
    Charge (ESU x 10^10)
                -0.0000
    Dipole Moment (Debye)
         X       2.7605      Y      -0.2235      Z       0.0000
       Tot       2.7695
    Quadrupole Moments (Debye-Ang)
        XX     -11.1523     XY       6.1567     YY     -13.2408
        XZ       0.0000     YZ       0.0000     ZZ     -12.2352
    Octopole Moments (Debye-Ang^2)
       XXX       9.2566    XXY      -1.4424    XYY      -1.0456
       YYY      -0.7242    XXZ      -0.0000    XYZ       0.0000
       YYZ      -0.0000    XZZ       6.4312    YZZ       0.7539
       ZZZ      -0.0000
    Hexadecapole Moments (Debye-Ang^3)
      XXXX    -170.5977   XXXY      24.4729   XXYY     -31.3696
      XYYY       4.7799   YYYY     -15.7805   XXXZ      -0.0000
      XXYZ      -0.0000   XYYZ      -0.0000   YYYZ       0.0000
      XXZZ     -28.9998   XYZZ       2.4588   YYZZ      -5.2013
      XZZZ      -0.0000   YZZZ      -0.0000   ZZZZ     -14.6999
 -----------------------------------------------------------------
 Calculating analytic gradient of the SCF energy
 Gradient of SCF Energy
            1           2           3           4           5           6
    1   0.0000170   0.0000014  -0.0000241   0.0000306  -0.0000124  -0.0000124
    2   0.0000728   0.0000044  -0.0001122   0.0000282   0.0000034   0.0000034
    3   0.0000000  -0.0000000  -0.0000000   0.0000000  -0.0000012   0.0000012
 Max gradient component =       1.122E-04
 RMS gradient           =       3.402E-05
 Gradient time:  CPU 14.17 s  wall 1.11 s
 Geometry Optimization Parameters
   NAtoms,    NIC,     NZ,  NCons,   NDum,   NFix, NCnnct, MaxDiis
        6      25       0       0       0       0       0       0

 Cartesian Hessian Update
 Hessian updated using BFGS update


** GEOMETRY OPTIMIZATION IN DELOCALIZED INTERNAL COORDINATES **
   Searching for a Minimum

   Optimization Cycle:   2

                       Coordinates (Angstroms)
     ATOM                X               Y               Z
      1  O        -1.5114195353    0.1214968694    0.0000000000
      2  H        -1.9233579033   -0.7473791746    0.0000000000
      3  H        -0.5556510857   -0.0447119360    0.0000000000
      4  O         1.3808119265   -0.1060573455    0.0000000000
      5  H         1.7611804625    0.3344685734   -0.7676820184
      6  H         1.7611804625    0.3344685734    0.7676820184
   Point Group: cs    Number of degrees of freedom:     8


   Energy is   -152.707509579

 Hessian updated using BFGS update

  8 Hessian modes will be used to form the next step
  Hessian Eigenvalues:
     0.018733    0.050665    0.086407    0.163394    0.199341    0.534743
     0.549276    0.793896

 Minimum search - taking simple RFO step
 Searching for Lamda that Minimizes Along All modes
 Value Taken    Lamda =  -0.00000037
 Step Taken.  Stepsize is  0.004400

                             Maximum     Tolerance    Cnvgd?
         Gradient           0.000062      0.000050      NO
         Displacement       0.002929      0.000050      NO
         Energy change     -0.000000      0.000000     YES


 New Cartesian Coordinates Obtained by Inverse Iteration

 Displacement from previous Coordinates is:  0.005135
 ----------------------------------------------------------------
             Standard Nuclear Orientation (Angstroms)
    I     Atom           X                Y                Z
 ----------------------------------------------------------------
    1      O      -1.5120499846     0.1215264599     0.0000000000
    2      H      -1.9219927083    -0.7481837681     0.0000000000
    3      H      -0.5560514130    -0.0432188180     0.0000000000
    4      O       1.3798306301    -0.1056183015     0.0000000000
    5      H       1.7615039015     0.3338899939    -0.7675255271
    6      H       1.7615039015     0.3338899939     0.7675255271
 ----------------------------------------------------------------
 Molecular Point Group                 Cs    NOp =  2
 Largest Abelian Subgroup              Cs    NOp =  2
 Nuclear Repulsion Energy =          36.57673243 hartrees
 There are       10 alpha and       10 beta electrons
 Applying Cartesian multipole field
    Component          Value
    ---------          -----
     (2,0,0)        1.00000E-11
     (0,2,0)        2.00000E-11
     (0,0,2)       -3.00000E-11
 Nucleus-field energy     =     0.0000000015 hartrees
 Requested basis set is def2-SVPD
 There are 34 shells and 78 basis functions
 A cutoff of  1.0D-14 yielded    594 shell pairs
 There are      3162 function pairs (      3504 Cartesian)
 Smallest overlap matrix eigenvalue = 1.55E-03
 Read the previous MOs as SCF guess

 -----------------------------------------------------------------------
  General SCF calculation program by
  Eric Jon Sundstrom, Paul Horn, Yuezhi Mao, Dmitri Zuev, Alec White,
  David Stuck, Shaama M.S., Shane Yost, Joonho Lee, David Small,
  Daniel Levine, Susi Lehtola, Hugh Burton, Evgeny Epifanovsky,
  Bang C. Huynh
 -----------------------------------------------------------------------
 Exchange:     0.1670 Hartree-Fock + 1.0000 wB97X-V + LR-HF
 Correlation:  1.0000 wB97X-V
 Using Euler-Maclaurin-Lebedev (75,302) quadrature formula
 Nonlocal Correlation:  VV10 with C = 0.0100 and b = 6.00 and scale = 1.00000
 Grid used for NLC:  SG-1 standard quadrature
 A restricted SCF calculation will be
 performed using DIIS
 SCF converges when DIIS error is below 1.0e-09
 ---------------------------------------
  Cycle       Energy         DIIS error
 ---------------------------------------
    1    -152.7075080963      4.89e-05  
    2    -152.7075097867      7.91e-06  
    3    -152.7075098618      1.59e-06  
    4    -152.7075098647      1.23e-06  
    5    -152.7075098657      2.51e-07  
    6    -152.7075098658      4.58e-08  
    7    -152.7075098658      8.99e-09  
    8    -152.7075098658      3.40e-09  
    9    -152.7075098658      1.27e-09  
   10    -152.7075098658      2.27e-10  Convergence criterion met
 ---------------------------------------
 SCF time:   CPU 62.97s  wall 6.00s 
 SCF   energy =  -152.70750987
 Total energy =  -152.70750987
 
 --------------------------------------------------------------
             Orbital Energies (a.u.) and Symmetries
 --------------------------------------------------------------
 
 Alpha MOs, Restricted
 -- Occupied --                  
-19.263 -19.206  -1.159  -1.101  -0.676  -0.626  -0.536  -0.478
  1 A'    2 A'    3 A'    4 A'    1 A"    5 A'    6 A'    7 A'                 
 -0.455  -0.404
  8 A'    2 A"                                                                 
 -- Virtual --                   
  0.061   0.109   0.121   0.149   0.174   0.192   0.210   0.230
  9 A'   10 A'    3 A"   11 A'   12 A'    4 A"   13 A'   14 A'                 
  0.239   0.268   0.288   0.291   0.315   0.336   0.359   0.392
  5 A"   15 A'    6 A"   16 A'   17 A'   18 A'    7 A"   19 A'                 
  0.419   0.437   0.448   0.449   0.484   0.490   0.499   0.605
  8 A"   20 A'   21 A'    9 A"   10 A"   22 A'   23 A'   24 A'                 
  0.610   0.641   0.678   0.684   0.684   0.723   0.748   0.759
 11 A"   25 A'   26 A'   27 A'   12 A"   13 A"   28 A'   14 A"                 
  0.779   0.864   1.041   1.067   1.107   1.176   1.314   1.435
 29 A'   30 A'   31 A'   32 A'   15 A"   33 A'   34 A'   35 A'                 
  1.437   1.617   1.618   1.668   1.737   1.796   1.845   1.865
 16 A"   17 A"   36 A'   37 A'   38 A'   18 A"   19 A"   39 A'                 
  1.972   2.024   2.059   2.063   2.122   2.167   2.335   2.451
 40 A'   20 A"   41 A'   21 A"   42 A'   43 A'   22 A"   44 A'                 
  2.477   2.607   3.120   3.127   3.141   3.206   3.292   3.340
 45 A'   46 A'   47 A'   23 A"   24 A"   25 A"   48 A'   49 A'                 
  3.726   3.806   4.111   4.198
 50 A'   51 A'   26 A"   52 A'                                                 
 
 Beta MOs, Restricted
 -- Occupied --                  
-19.263 -19.206  -1.159  -1.101  -0.676  -0.626  -0.536  -0.478
  1 A'    2 A'    3 A'    4 A'    1 A"    5 A'    6 A'    7 A'                 
 -0.455  -0.404
  8 A'    2 A"                                                                 
 -- Virtual --                   
  0.061   0.109   0.121   0.149   0.174   0.192   0.210   0.230
  9 A'   10 A'    3 A"   11 A'   12 A'    4 A"   13 A'   14 A'                 
  0.239   0.268   0.288   0.291   0.315   0.336   0.359   0.392
  5 A"   15 A'    6 A"   16 A'   17 A'   18 A'    7 A"   19 A'                 
  0.419   0.437   0.448   0.449   0.484   0.490   0.499   0.605
  8 A"   20 A'   21 A'    9 A"   10 A"   22 A'   23 A'   24 A'                 
  0.610   0.641   0.678   0.684   0.684   0.723   0.748   0.759
 11 A"   25 A'   26 A'   27 A'   12 A"   13 A"   28 A'   14 A"                 
  0.779   0.864   1.041   1.067   1.107   1.176   1.314   1.435
 29 A'   30 A'   31 A'   32 A'   15 A"   33 A'   34 A'   35 A'                 
  1.437   1.617   1.618   1.668   1.737   1.796   1.845   1.865
 16 A"   17 A"   36 A'   37 A'   38 A'   18 A"   19 A"   39 A'                 
  1.972   2.024   2.059   2.063   2.122   2.167   2.335   2.451
 40 A'   20 A"   41 A'   21 A"   42 A'   43 A'   22 A"   44 A'                 
  2.477   2.607   3.120   3.127   3.141   3.206   3.292   3.340
 45 A'   46 A'   47 A'   23 A"   24 A"   25 A"   48 A'   49 A'                 
  3.726   3.806   4.111   4.198
 50 A'   51 A'   26 A"   52 A'                                                 
 --------------------------------------------------------------
 
          Ground-State Mulliken Net Atomic Charges

     Atom                 Charge (a.u.)
  ----------------------------------------
      1 O                    -0.247371
      2 H                     0.147238
      3 H                     0.083783
      4 O                    -0.313660
      5 H                     0.165005
      6 H                     0.165005
  ----------------------------------------
  Sum of atomic charges =     0.000000

 -----------------------------------------------------------------
                    Cartesian Multipole Moments
 -----------------------------------------------------------------
    Charge (ESU x 10^10)
                 0.0000
    Dipole Moment (Debye)
         X       2.7690      Y      -0.2257      Z      -0.0000
       Tot       2.7781
    Quadrupole Moments (Debye-Ang)
        XX     -11.1537     XY       6.1513     YY     -13.2397
        XZ      -0.0000     YZ      -0.0000     ZZ     -12.2359
    Octopole Moments (Debye-Ang^2)
       XXX       9.3691    XXY      -1.4519    XYY      -1.0442
       YYY      -0.7354    XXZ      -0.0000    XYZ      -0.0000
       YYZ      -0.0000    XZZ       6.4394    YZZ       0.7496
       ZZZ       0.0000
    Hexadecapole Moments (Debye-Ang^3)
      XXXX    -170.5863   XXXY      24.4445   XXYY     -31.3624
      XYYY       4.7750   YYYY     -15.7738   XXXZ      -0.0000
      XXYZ      -0.0000   XYYZ      -0.0000   YYYZ       0.0000
      XXZZ     -28.9945   XYZZ       2.4539   YYZZ      -5.2017
      XZZZ       0.0000   YZZZ       0.0000   ZZZZ     -14.6996
 -----------------------------------------------------------------
 Calculating analytic gradient of the SCF energy
 Gradient of SCF Energy
            1           2           3           4           5           6
    1  -0.0000334   0.0001031  -0.0000630   0.0000437  -0.0000252  -0.0000252
    2   0.0000282   0.0000914  -0.0001537   0.0000602  -0.0000131  -0.0000131
    3  -0.0000000  -0.0000000   0.0000000   0.0000000   0.0000876  -0.0000876
 Max gradient component =       1.537E-04
 RMS gradient           =       6.280E-05
 Gradient time:  CPU 12.87 s  wall 1.16 s
 Geometry Optimization Parameters
   NAtoms,    NIC,     NZ,  NCons,   NDum,   NFix, NCnnct, MaxDiis
        6      25       0       0       0       0       0       0

 Cartesian Hessian Update
 Hessian updated using BFGS update


** GEOMETRY OPTIMIZATION IN DELOCALIZED INTERNAL COORDINATES **
   Searching for a Minimum

   Optimization Cycle:   3

                       Coordinates (Angstroms)
     ATOM                X               Y               Z
      1  O        -1.5120499846    0.1215264599    0.0000000000
      2  H        -1.9219927083   -0.7481837681    0.0000000000
      3  H        -0.5560514130   -0.0432188180    0.0000000000
      4  O         1.3798306301   -0.1056183015    0.0000000000
      5  H         1.7615039015    0.3338899939   -0.7675255271
      6  H         1.7615039015    0.3338899939    0.7675255271
   Point Group: cs    Number of degrees of freedom:     8


   Energy is   -152.707509866

 Hessian updated using BFGS update

  8 Hessian modes will be used to form the next step
  Hessian Eigenvalues:
     0.006247    0.049851    0.088519    0.163675    0.218551    0.534828
     0.549303    1.012026

 Minimum search - taking simple RFO step
 Searching for Lamda that Minimizes Along All modes
 Value Taken    Lamda =  -0.00000060
 Step Taken.  Stepsize is  0.009260

                             Maximum     Tolerance    Cnvgd?
         Gradient           0.000132      0.000050      NO
         Displacement       0.006042      0.000050      NO
         Energy change     -0.000000      0.000000      NO


 New Cartesian Coordinates Obtained by Inverse Iteration

 Displacement from previous Coordinates is:  0.010246
 ----------------------------------------------------------------
             Standard Nuclear Orientation (Angstroms)
    I     Atom           X                Y                Z
 ----------------------------------------------------------------
    1      O      -1.5134081342     0.1214244600     0.0000000000
    2      H      -1.9197358604    -0.7498902073     0.0000000000
    3      H      -0.5568688429    -0.0400980673     0.0000000000
    4      O       1.3779862784    -0.1045130542     0.0000000000
    5      H       1.7623854432     0.3326812145    -0.7674027812
    6      H       1.7623854432     0.3326812145     0.7674027812
 ----------------------------------------------------------------
 Molecular Point Group                 Cs    NOp =  2
 Largest Abelian Subgroup              Cs    NOp =  2
 Nuclear Repulsion Energy =          36.58102390 hartrees
 There are       10 alpha and       10 beta electrons
 Applying Cartesian multipole field
    Component          Value
    ---------          -----
     (2,0,0)        1.00000E-11
     (0,2,0)        2.00000E-11
     (0,0,2)       -3.00000E-11
 Nucleus-field energy     =     0.0000000015 hartrees
 Requested basis set is def2-SVPD
 There are 34 shells and 78 basis functions
 A cutoff of  1.0D-14 yielded    594 shell pairs
 There are      3162 function pairs (      3504 Cartesian)
 Smallest overlap matrix eigenvalue = 1.55E-03
 Read the previous MOs as SCF guess

 -----------------------------------------------------------------------
  General SCF calculation program by
  Eric Jon Sundstrom, Paul Horn, Yuezhi Mao, Dmitri Zuev, Alec White,
  David Stuck, Shaama M.S., Shane Yost, Joonho Lee, David Small,
  Daniel Levine, Susi Lehtola, Hugh Burton, Evgeny Epifanovsky,
  Bang C. Huynh
 -----------------------------------------------------------------------
 Exchange:     0.1670 Hartree-Fock + 1.0000 wB97X-V + LR-HF
 Correlation:  1.0000 wB97X-V
 Using Euler-Maclaurin-Lebedev (75,302) quadrature formula
 Nonlocal Correlation:  VV10 with C = 0.0100 and b = 6.00 and scale = 1.00000
 Grid used for NLC:  SG-1 standard quadrature
 A restricted SCF calculation will be
 performed using DIIS
 SCF converges when DIIS error is below 1.0e-09
 ---------------------------------------
  Cycle       Energy         DIIS error
 ---------------------------------------
    1    -152.7075028527      1.02e-04  
    2    -152.7075099951      1.63e-05  
    3    -152.7075103126      3.62e-06  
    4    -152.7075103259      2.80e-06  
    5    -152.7075103311      4.87e-07  
    6    -152.7075103314      1.08e-07  
    7    -152.7075103315      6.84e-08  
    8    -152.7075103315      1.38e-08  
    9    -152.7075103315      1.49e-09  
   10    -152.7075103315      3.11e-10  Convergence criterion met
 ---------------------------------------
 SCF time:   CPU 55.47s  wall 4.00s 
 SCF   energy =  -152.70751033
 Total energy =  -152.70751033
 
 --------------------------------------------------------------
             Orbital Energies (a.u.) and Symmetries
 --------------------------------------------------------------
 
 Alpha MOs, Restricted
 -- Occupied --                  
-19.263 -19.206  -1.159  -1.101  -0.676  -0.626  -0.536  -0.478
  1 A'    2 A'    3 A'    4 A'    1 A"    5 A'    6 A'    7 A'                 
 -0.455  -0.404
  8 A'    2 A"                                                                 
 -- Virtual --                   
  0.061   0.109   0.121   0.149   0.175   0.192   0.210   0.230
  9 A'   10 A'    3 A"   11 A'   12 A'    4 A"   13 A'   14 A'                 
  0.240   0.268   0.288   0.291   0.314   0.336   0.359   0.392
  5 A"   15 A'    6 A"   16 A'   17 A'   18 A'    7 A"   19 A'                 
  0.419   0.438   0.448   0.449   0.484   0.490   0.499   0.605
  8 A"   20 A'   21 A'    9 A"   10 A"   22 A'   23 A'   24 A'                 
  0.611   0.642   0.678   0.683   0.685   0.723   0.749   0.759
 11 A"   25 A'   26 A'   27 A'   12 A"   13 A"   28 A'   14 A"                 
  0.780   0.864   1.040   1.067   1.107   1.176   1.314   1.435
 29 A'   30 A'   31 A'   32 A'   15 A"   33 A'   34 A'   35 A'                 
  1.437   1.617   1.618   1.668   1.737   1.795   1.845   1.865
 16 A"   17 A"   36 A'   37 A'   38 A'   18 A"   19 A"   39 A'                 
  1.972   2.024   2.059   2.063   2.122   2.167   2.336   2.451
 40 A'   20 A"   41 A'   21 A"   42 A'   43 A'   22 A"   44 A'                 
  2.477   2.607   3.119   3.128   3.141   3.206   3.292   3.340
 45 A'   46 A'   47 A'   23 A"   24 A"   25 A"   48 A'   49 A'                 
  3.726   3.805   4.111   4.199
 50 A'   51 A'   26 A"   52 A'                                                 
 
 Beta MOs, Restricted
 -- Occupied --                  
-19.263 -19.206  -1.159  -1.101  -0.676  -0.626  -0.536  -0.478
  1 A'    2 A'    3 A'    4 A'    1 A"    5 A'    6 A'    7 A'                 
 -0.455  -0.404
  8 A'    2 A"                                                                 
 -- Virtual --                   
  0.061   0.109   0.121   0.149   0.175   0.192   0.210   0.230
  9 A'   10 A'    3 A"   11 A'   12 A'    4 A"   13 A'   14 A'                 
  0.240   0.268   0.288   0.291   0.314   0.336   0.359   0.392
  5 A"   15 A'    6 A"   16 A'   17 A'   18 A'    7 A"   19 A'                 
  0.419   0.438   0.448   0.449   0.484   0.490   0.499   0.605
  8 A"   20 A'   21 A'    9 A"   10 A"   22 A'   23 A'   24 A'                 
  0.611   0.642   0.678   0.683   0.685   0.723   0.749   0.759
 11 A"   25 A'   26 A'   27 A'   12 A"   13 A"   28 A'   14 A"                 
  0.780   0.864   1.040   1.067   1.107   1.176   1.314   1.435
 29 A'   30 A'   31 A'   32 A'   15 A"   33 A'   34 A'   35 A'                 
  1.437   1.617   1.618   1.668   1.737   1.795   1.845   1.865
 16 A"   17 A"   36 A'   37 A'   38 A'   18 A"   19 A"   39 A'                 
  1.972   2.024   2.059   2.063   2.122   2.167   2.336   2.451
 40 A'   20 A"   41 A'   21 A"   42 A'   43 A'   22 A"   44 A'                 
  2.477   2.607   3.119   3.128   3.141   3.206   3.292   3.340
 45 A'   46 A'   47 A'   23 A"   24 A"   25 A"   48 A'   49 A'                 
  3.726   3.805   4.111   4.199
 50 A'   51 A'   26 A"   52 A'                                                 
 --------------------------------------------------------------
 
          Ground-State Mulliken Net Atomic Charges

     Atom                 Charge (a.u.)
  ----------------------------------------
      1 O                    -0.247165
      2 H                     0.146745
      3 H                     0.084091
      4 O                    -0.312891
      5 H                     0.164610
      6 H                     0.164610
  ----------------------------------------
  Sum of atomic charges =     0.000000

 -----------------------------------------------------------------
                    Cartesian Multipole Moments
 -----------------------------------------------------------------
    Charge (ESU x 10^10)
                 0.0000
    Dipole Moment (Debye)
         X       2.7860      Y      -0.2304      Z       0.0000
       Tot       2.7955
    Quadrupole Moments (Debye-Ang)
        XX     -11.1529     XY       6.1398     YY     -13.2383
        XZ       0.0000     YZ       0.0000     ZZ     -12.2364
    Octopole Moments (Debye-Ang^2)
       XXX       9.5921    XXY      -1.4757    XYY      -1.0429
       YYY      -0.7595    XXZ       0.0000    XYZ       0.0000
       YYZ       0.0000    XZZ       6.4591    YZZ       0.7410
       ZZZ       0.0000
    Hexadecapole Moments (Debye-Ang^3)
      XXXX    -170.5660   XXXY      24.3867   XXYY     -31.3526
      XYYY       4.7555   YYYY     -15.7603   XXXZ       0.0000
      XXYZ       0.0000   XYYZ       0.0000   YYYZ       0.0000
      XXZZ     -28.9848   XYZZ       2.4414   YYZZ      -5.2028
      XZZZ       0.0000   YZZZ       0.0000   ZZZZ     -14.6992
 -----------------------------------------------------------------
 Calculating analytic gradient of the SCF energy
 Gradient of SCF Energy
            1           2           3           4           5           6
    1  -0.0000847   0.0001919  -0.0000817   0.0000426  -0.0000340  -0.0000340
    2  -0.0000105   0.0001638  -0.0001839   0.0000833  -0.0000264  -0.0000264
    3  -0.0000000  -0.0000000   0.0000000  -0.0000000   0.0001658  -0.0001658
 Max gradient component =       1.919E-04
 RMS gradient           =       9.968E-05
 Gradient time:  CPU 13.83 s  wall 1.04 s
 Geometry Optimization Parameters
   NAtoms,    NIC,     NZ,  NCons,   NDum,   NFix, NCnnct, MaxDiis
        6      25       0       0       0       0       0       0

 Cartesian Hessian Update
 Hessian updated using BFGS update


** GEOMETRY OPTIMIZATION IN DELOCALIZED INTERNAL COORDINATES **
   Searching for a Minimum

   Optimization Cycle:   4

                       Coordinates (Angstroms)
     ATOM                X               Y               Z
      1  O        -1.5134081342    0.1214244600    0.0000000000
      2  H        -1.9197358604   -0.7498902073    0.0000000000
      3  H        -0.5568688429   -0.0400980673    0.0000000000
      4  O         1.3779862784   -0.1045130542    0.0000000000
      5  H         1.7623854432    0.3326812145   -0.7674027812
      6  H         1.7623854432    0.3326812145    0.7674027812
   Point Group: cs    Number of degrees of freedom:     8


   Energy is   -152.707510331

 Hessian updated using BFGS update

  8 Hessian modes will be used to form the next step
  Hessian Eigenvalues:
     0.002594    0.049756    0.089692    0.163737    0.223306    0.535015
     0.549327    1.048835

 Minimum search - taking simple RFO step
 Searching for Lamda that Minimizes Along All modes
 Value Taken    Lamda =  -0.00000100
 Step Taken.  Stepsize is  0.017605

                             Maximum     Tolerance    Cnvgd?
         Gradient           0.000230      0.000050      NO
         Displacement       0.011401      0.000050      NO
         Energy change     -0.000000      0.000000      NO


 New Cartesian Coordinates Obtained by Inverse Iteration

 Displacement from previous Coordinates is:  0.018971
 ----------------------------------------------------------------
             Standard Nuclear Orientation (Angstroms)
    I     Atom           X                Y                Z
 ----------------------------------------------------------------
    1      O      -1.5160629044     0.1210285119     0.0000000000
    2      H      -1.9161667731    -0.7531260294     0.0000000000
    3      H      -0.5584737055    -0.0342145768     0.0000000000
    4      O       1.3748191278    -0.1022069791     0.0000000000
    5      H       1.7643142912     0.3304023168    -0.7673843411
    6      H       1.7643142912     0.3304023168     0.7673843411
 ----------------------------------------------------------------
 Molecular Point Group                 Cs    NOp =  2
 Largest Abelian Subgroup              Cs    NOp =  2
 Nuclear Repulsion Energy =          36.58466212 hartrees
 There are       10 alpha and       10 beta electrons
 Applying Cartesian multipole field
    Component          Value
    ---------          -----
     (2,0,0)        1.00000E-11
     (0,2,0)        2.00000E-11
     (0,0,2)       -3.00000E-11
 Nucleus-field energy     =     0.0000000015 hartrees
 Requested basis set is def2-SVPD
 There are 34 shells and 78 basis functions
 A cutoff of  1.0D-14 yielded    594 shell pairs
 There are      3162 function pairs (      3504 Cartesian)
 Smallest overlap matrix eigenvalue = 1.56E-03
 Read the previous MOs as SCF guess

 -----------------------------------------------------------------------
  General SCF calculation program by
  Eric Jon Sundstrom, Paul Horn, Yuezhi Mao, Dmitri Zuev, Alec White,
  David Stuck, Shaama M.S., Shane Yost, Joonho Lee, David Small,
  Daniel Levine, Susi Lehtola, Hugh Burton, Evgeny Epifanovsky,
  Bang C. Huynh
 -----------------------------------------------------------------------
 Exchange:     0.1670 Hartree-Fock + 1.0000 wB97X-V + LR-HF
 Correlation:  1.0000 wB97X-V
 Using Euler-Maclaurin-Lebedev (75,302) quadrature formula
 Nonlocal Correlation:  VV10 with C = 0.0100 and b = 6.00 and scale = 1.00000
 Grid used for NLC:  SG-1 standard quadrature
 A restricted SCF calculation will be
 performed using DIIS
 SCF converges when DIIS error is below 1.0e-09
 ---------------------------------------
  Cycle       Energy         DIIS error
 ---------------------------------------
    1    -152.7074847969      1.92e-04  
    2    -152.7075098626      3.07e-05  
    3    -152.7075109723      7.95e-06  
    4    -152.7075110242      5.85e-06  
    5    -152.7075110471      8.67e-07  
    6    -152.7075110485      2.13e-07  
    7    -152.7075110486      1.48e-07  
    8    -152.7075110486      2.43e-08  
    9    -152.7075110486      2.52e-09  
   10    -152.7075110486      4.74e-10  Convergence criterion met
 ---------------------------------------
 SCF time:   CPU 57.14s  wall 4.00s 
 SCF   energy =  -152.70751105
 Total energy =  -152.70751105
 
 --------------------------------------------------------------
             Orbital Energies (a.u.) and Symmetries
 --------------------------------------------------------------
 
 Alpha MOs, Restricted
 -- Occupied --                  
-19.263 -19.206  -1.160  -1.101  -0.676  -0.625  -0.536  -0.478
  1 A'    2 A'    3 A'    4 A'    1 A"    5 A'    6 A'    7 A'                 
 -0.455  -0.404
  8 A'    2 A"                                                                 
 -- Virtual --                   
  0.061   0.110   0.121   0.149   0.175   0.192   0.210   0.230
  9 A'   10 A'    3 A"   11 A'   12 A'    4 A"   13 A'   14 A'                 
  0.240   0.269   0.288   0.292   0.314   0.336   0.358   0.392
  5 A"   15 A'    6 A"   16 A'   17 A'   18 A'    7 A"   19 A'                 
  0.418   0.438   0.448   0.449   0.484   0.489   0.499   0.605
  8 A"   20 A'   21 A'    9 A"   10 A"   22 A'   23 A'   24 A'                 
  0.611   0.642   0.678   0.683   0.685   0.723   0.750   0.760
 11 A"   25 A'   26 A'   27 A'   12 A"   13 A"   28 A'   14 A"                 
  0.780   0.864   1.039   1.067   1.107   1.176   1.314   1.434
 29 A'   30 A'   31 A'   32 A'   15 A"   33 A'   34 A'   35 A'                 
  1.438   1.618   1.619   1.668   1.737   1.795   1.846   1.867
 16 A"   17 A"   36 A'   37 A'   38 A'   18 A"   19 A"   39 A'                 
  1.971   2.025   2.059   2.063   2.122   2.166   2.336   2.452
 40 A'   20 A"   41 A'   21 A"   42 A'   43 A'   22 A"   44 A'                 
  2.478   2.608   3.119   3.128   3.141   3.207   3.292   3.340
 45 A'   46 A'   47 A'   23 A"   24 A"   25 A"   48 A'   49 A'                 
  3.726   3.805   4.111   4.199
 50 A'   51 A'   26 A"   52 A'                                                 
 
 Beta MOs, Restricted
 -- Occupied --                  
-19.263 -19.206  -1.160  -1.101  -0.676  -0.625  -0.536  -0.478
  1 A'    2 A'    3 A'    4 A'    1 A"    5 A'    6 A'    7 A'                 
 -0.455  -0.404
  8 A'    2 A"                                                                 
 -- Virtual --                   
  0.061   0.110   0.121   0.149   0.175   0.192   0.210   0.230
  9 A'   10 A'    3 A"   11 A'   12 A'    4 A"   13 A'   14 A'                 
  0.240   0.269   0.288   0.292   0.314   0.336   0.358   0.392
  5 A"   15 A'    6 A"   16 A'   17 A'   18 A'    7 A"   19 A'                 
  0.418   0.438   0.448   0.449   0.484   0.489   0.499   0.605
  8 A"   20 A'   21 A'    9 A"   10 A"   22 A'   23 A'   24 A'                 
  0.611   0.642   0.678   0.683   0.685   0.723   0.750   0.760
 11 A"   25 A'   26 A'   27 A'   12 A"   13 A"   28 A'   14 A"                 
  0.780   0.864   1.039   1.067   1.107   1.176   1.314   1.434
 29 A'   30 A'   31 A'   32 A'   15 A"   33 A'   34 A'   35 A'                 
  1.438   1.618   1.619   1.668   1.737   1.795   1.846   1.867
 16 A"   17 A"   36 A'   37 A'   38 A'   18 A"   19 A"   39 A'                 
  1.971   2.025   2.059   2.063   2.122   2.166   2.336   2.452
 40 A'   20 A"   41 A'   21 A"   42 A'   43 A'   22 A"   44 A'                 
  2.478   2.608   3.119   3.128   3.141   3.207   3.292   3.340
 45 A'   46 A'   47 A'   23 A"   24 A"   25 A"   48 A'   49 A'                 
  3.726   3.805   4.111   4.199
 50 A'   51 A'   26 A"   52 A'                                                 
 --------------------------------------------------------------
 
          Ground-State Mulliken Net Atomic Charges

     Atom                 Charge (a.u.)
  ----------------------------------------
      1 O                    -0.247004
      2 H                     0.145883
      3 H                     0.084832
      4 O                    -0.311632
      5 H                     0.163960
      6 H                     0.163960
  ----------------------------------------
  Sum of atomic charges =     0.000000

 -----------------------------------------------------------------
                    Cartesian Multipole Moments
 -----------------------------------------------------------------
    Charge (ESU x 10^10)
                 0.0000
    Dipole Moment (Debye)
         X       2.8170      Y      -0.2396      Z       0.0000
       Tot       2.8271
    Quadrupole Moments (Debye-Ang)
        XX     -11.1475     XY       6.1180     YY     -13.2364
        XZ      -0.0000     YZ       0.0000     ZZ     -12.2363
    Octopole Moments (Debye-Ang^2)
       XXX       9.9977    XXY      -1.5250    XYY      -1.0424
       YYY      -0.8055    XXZ       0.0000    XYZ      -0.0000
       YYZ      -0.0000    XZZ       6.4986    YZZ       0.7255
       ZZZ       0.0000
    Hexadecapole Moments (Debye-Ang^3)
      XXXX    -170.5482   XXXY      24.2791   XXYY     -31.3419
      XYYY       4.7074   YYYY     -15.7351   XXXZ      -0.0000
      XXYZ       0.0000   XYYZ      -0.0000   YYYZ       0.0000
      XXZZ     -28.9703   XYZZ       2.4147   YYZZ      -5.2053
      XZZZ      -0.0000   YZZZ       0.0000   ZZZZ     -14.6986
 -----------------------------------------------------------------
 Calculating analytic gradient of the SCF energy
 Gradient of SCF Energy
            1           2           3           4           5           6
    1  -0.0001177   0.0002294  -0.0000616   0.0000149  -0.0000325  -0.0000325
    2  -0.0000407   0.0001936  -0.0001749   0.0000830  -0.0000305  -0.0000305
    3  -0.0000000  -0.0000000   0.0000000   0.0000000   0.0002018  -0.0002018
 Max gradient component =       2.294E-04
 RMS gradient           =       1.137E-04
 Gradient time:  CPU 14.14 s  wall 0.91 s
 Geometry Optimization Parameters
   NAtoms,    NIC,     NZ,  NCons,   NDum,   NFix, NCnnct, MaxDiis
        6      25       0       0       0       0       0       0

 Cartesian Hessian Update
 Hessian updated using BFGS update


** GEOMETRY OPTIMIZATION IN DELOCALIZED INTERNAL COORDINATES **
   Searching for a Minimum

   Optimization Cycle:   5

                       Coordinates (Angstroms)
     ATOM                X               Y               Z
      1  O        -1.5160629044    0.1210285119    0.0000000000
      2  H        -1.9161667731   -0.7531260294    0.0000000000
      3  H        -0.5584737055   -0.0342145768    0.0000000000
      4  O         1.3748191278   -0.1022069791    0.0000000000
      5  H         1.7643142912    0.3304023168   -0.7673843411
      6  H         1.7643142912    0.3304023168    0.7673843411
   Point Group: cs    Number of degrees of freedom:     8


   Energy is   -152.707511049

 Hessian updated using BFGS update

  8 Hessian modes will be used to form the next step
  Hessian Eigenvalues:
     0.001754    0.049842    0.090026    0.163737    0.213084    0.535150
     0.549320    0.913106

 Minimum search - taking simple RFO step
 Searching for Lamda that Minimizes Along All modes
 Value Taken    Lamda =  -0.00000084
 Step Taken.  Stepsize is  0.016523

                             Maximum     Tolerance    Cnvgd?
         Gradient           0.000281      0.000050      NO
         Displacement       0.010748      0.000050      NO
         Energy change     -0.000001      0.000000      NO


 New Cartesian Coordinates Obtained by Inverse Iteration

 Displacement from previous Coordinates is:  0.017529
 ----------------------------------------------------------------
             Standard Nuclear Orientation (Angstroms)
    I     Atom           X                Y                Z
 ----------------------------------------------------------------
    1      O      -1.5187167476     0.1204629894     0.0000000000
    2      H      -1.9135532674    -0.7561657440     0.0000000000
    3      H      -0.5601450059    -0.0287490978     0.0000000000
    4      O       1.3722853962    -0.0998494846     0.0000000000
    5      H       1.7664369760     0.3282934485    -0.7675641154
    6      H       1.7664369760     0.3282934485     0.7675641154
 ----------------------------------------------------------------
 Molecular Point Group                 Cs    NOp =  2
 Largest Abelian Subgroup              Cs    NOp =  2
 Nuclear Repulsion Energy =          36.58264227 hartrees
 There are       10 alpha and       10 beta electrons
 Applying Cartesian multipole field
    Component          Value
    ---------          -----
     (2,0,0)        1.00000E-11
     (0,2,0)        2.00000E-11
     (0,0,2)       -3.00000E-11
 Nucleus-field energy     =     0.0000000015 hartrees
 Requested basis set is def2-SVPD
 There are 34 shells and 78 basis functions
 A cutoff of  1.0D-14 yielded    594 shell pairs
 There are      3162 function pairs (      3504 Cartesian)
 Smallest overlap matrix eigenvalue = 1.57E-03
 Read the previous MOs as SCF guess

 -----------------------------------------------------------------------
  General SCF calculation program by
  Eric Jon Sundstrom, Paul Horn, Yuezhi Mao, Dmitri Zuev, Alec White,
  David Stuck, Shaama M.S., Shane Yost, Joonho Lee, David Small,
  Daniel Levine, Susi Lehtola, Hugh Burton, Evgeny Epifanovsky,
  Bang C. Huynh
 -----------------------------------------------------------------------
 Exchange:     0.1670 Hartree-Fock + 1.0000 wB97X-V + LR-HF
 Correlation:  1.0000 wB97X-V
 Using Euler-Maclaurin-Lebedev (75,302) quadrature formula
 Nonlocal Correlation:  VV10 with C = 0.0100 and b = 6.00 and scale = 1.00000
 Grid used for NLC:  SG-1 standard quadrature
 A restricted SCF calculation will be
 performed using DIIS
 SCF converges when DIIS error is below 1.0e-09
 ---------------------------------------
  Cycle       Energy         DIIS error
 ---------------------------------------
    1    -152.7074891499      1.78e-04  
    2    -152.7075106003      2.85e-05  
    3    -152.7075115442      8.40e-06  
    4    -152.7075115951      5.72e-06  
    5    -152.7075116175      7.77e-07  
    6    -152.7075116187      2.05e-07  
    7    -152.7075116188      1.47e-07  
    8    -152.7075116188      2.19e-08  
    9    -152.7075116188      2.14e-09  
   10    -152.7075116188      3.02e-10  Convergence criterion met
 ---------------------------------------
 SCF time:   CPU 52.14s  wall 4.00s 
 SCF   energy =  -152.70751162
 Total energy =  -152.70751162
 
 --------------------------------------------------------------
             Orbital Energies (a.u.) and Symmetries
 --------------------------------------------------------------
 
 Alpha MOs, Restricted
 -- Occupied --                  
-19.264 -19.205  -1.160  -1.101  -0.676  -0.625  -0.536  -0.477
  1 A'    2 A'    3 A'    4 A'    1 A"    5 A'    6 A'    7 A'                 
 -0.455  -0.404
  8 A'    2 A"                                                                 
 -- Virtual --                   
  0.061   0.110   0.121   0.149   0.175   0.191   0.210   0.230
  9 A'   10 A'    3 A"   11 A'   12 A'    4 A"   13 A'   14 A'                 
  0.240   0.269   0.288   0.292   0.314   0.336   0.358   0.393
  5 A"   15 A'    6 A"   16 A'   17 A'   18 A'    7 A"   19 A'                 
  0.418   0.439   0.448   0.449   0.485   0.489   0.498   0.605
  8 A"   20 A'   21 A'    9 A"   10 A"   22 A'   23 A'   24 A'                 
  0.611   0.642   0.678   0.683   0.685   0.723   0.750   0.760
 11 A"   25 A'   26 A'   27 A'   12 A"   13 A"   28 A'   14 A"                 
  0.780   0.863   1.038   1.068   1.107   1.177   1.314   1.434
 29 A'   30 A'   31 A'   32 A'   15 A"   33 A'   34 A'   35 A'                 
  1.439   1.618   1.619   1.668   1.736   1.795   1.846   1.868
 16 A"   17 A"   36 A'   37 A'   38 A'   18 A"   19 A"   39 A'                 
  1.971   2.025   2.059   2.063   2.123   2.166   2.336   2.452
 40 A'   20 A"   41 A'   21 A"   42 A'   43 A'   22 A"   44 A'                 
  2.478   2.609   3.118   3.128   3.141   3.207   3.292   3.340
 45 A'   46 A'   47 A'   23 A"   24 A"   25 A"   48 A'   49 A'                 
  3.726   3.805   4.111   4.199
 50 A'   51 A'   26 A"   52 A'                                                 
 
 Beta MOs, Restricted
 -- Occupied --                  
-19.264 -19.205  -1.160  -1.101  -0.676  -0.625  -0.536  -0.477
  1 A'    2 A'    3 A'    4 A'    1 A"    5 A'    6 A'    7 A'                 
 -0.455  -0.404
  8 A'    2 A"                                                                 
 -- Virtual --                   
  0.061   0.110   0.121   0.149   0.175   0.191   0.210   0.230
  9 A'   10 A'    3 A"   11 A'   12 A'    4 A"   13 A'   14 A'                 
  0.240   0.269   0.288   0.292   0.314   0.336   0.358   0.393
  5 A"   15 A'    6 A"   16 A'   17 A'   18 A'    7 A"   19 A'                 
  0.418   0.439   0.448   0.449   0.485   0.489   0.498   0.605
  8 A"   20 A'   21 A'    9 A"   10 A"   22 A'   23 A'   24 A'                 
  0.611   0.642   0.678   0.683   0.685   0.723   0.750   0.760
 11 A"   25 A'   26 A'   27 A'   12 A"   13 A"   28 A'   14 A"                 
  0.780   0.863   1.038   1.068   1.107   1.177   1.314   1.434
 29 A'   30 A'   31 A'   32 A'   15 A"   33 A'   34 A'   35 A'                 
  1.439   1.618   1.619   1.668   1.736   1.795   1.846   1.868
 16 A"   17 A"   36 A'   37 A'   38 A'   18 A"   19 A"   39 A'                 
  1.971   2.025   2.059   2.063   2.123   2.166   2.336   2.452
 40 A'   20 A"   41 A'   21 A"   42 A'   43 A'   22 A"   44 A'                 
  2.478   2.609   3.118   3.128   3.141   3.207   3.292   3.340
 45 A'   46 A'   47 A'   23 A"   24 A"   25 A"   48 A'   49 A'                 
  3.726   3.805   4.111   4.199
 50 A'   51 A'   26 A"   52 A'                                                 
 --------------------------------------------------------------
 
          Ground-State Mulliken Net Atomic Charges

     Atom                 Charge (a.u.)
  ----------------------------------------
      1 O                    -0.247035
      2 H                     0.145152
      3 H                     0.085637
      4 O                    -0.310632
      5 H                     0.163439
      6 H                     0.163439
  ----------------------------------------
  Sum of atomic charges =     0.000000

 -----------------------------------------------------------------
                    Cartesian Multipole Moments
 -----------------------------------------------------------------
    Charge (ESU x 10^10)
                 0.0000
    Dipole Moment (Debye)
         X       2.8444      Y      -0.2483      Z       0.0000
       Tot       2.8552
    Quadrupole Moments (Debye-Ang)
        XX     -11.1393     XY       6.0975     YY     -13.2353
        XZ      -0.0000     YZ      -0.0000     ZZ     -12.2351
    Octopole Moments (Debye-Ang^2)
       XXX      10.3608    XXY      -1.5749    XYY      -1.0445
       YYY      -0.8488    XXZ      -0.0000    XYZ       0.0000
       YYZ       0.0000    XZZ       6.5376    YZZ       0.7116
       ZZZ      -0.0000
    Hexadecapole Moments (Debye-Ang^3)
      XXXX    -170.5767   XXXY      24.1828   XXYY     -31.3429
      XYYY       4.6523   YYYY     -15.7118   XXXZ      -0.0000
      XXYZ      -0.0000   XYYZ      -0.0000   YYYZ      -0.0000
      XXZZ     -28.9641   XYZZ       2.3871   YYZZ      -5.2079
      XZZZ      -0.0000   YZZZ      -0.0000   ZZZZ     -14.6981
 -----------------------------------------------------------------
 Calculating analytic gradient of the SCF energy
 Gradient of SCF Energy
            1           2           3           4           5           6
    1  -0.0000890   0.0001512  -0.0000035  -0.0000260  -0.0000163  -0.0000163
    2  -0.0000344   0.0001278  -0.0001052   0.0000483  -0.0000182  -0.0000182
    3   0.0000000   0.0000000  -0.0000000   0.0000000   0.0001349  -0.0001349
 Max gradient component =       1.512E-04
 RMS gradient           =       7.453E-05
 Gradient time:  CPU 13.53 s  wall 0.95 s
 Geometry Optimization Parameters
   NAtoms,    NIC,     NZ,  NCons,   NDum,   NFix, NCnnct, MaxDiis
        6      25       0       0       0       0       0       0

 Cartesian Hessian Update
 Hessian updated using BFGS update


** GEOMETRY OPTIMIZATION IN DELOCALIZED INTERNAL COORDINATES **
   Searching for a Minimum

   Optimization Cycle:   6

                       Coordinates (Angstroms)
     ATOM                X               Y               Z
      1  O        -1.5187167476    0.1204629894    0.0000000000
      2  H        -1.9135532674   -0.7561657440    0.0000000000
      3  H        -0.5601450059   -0.0287490978    0.0000000000
      4  O         1.3722853962   -0.0998494846    0.0000000000
      5  H         1.7664369760    0.3282934485   -0.7675641154
      6  H         1.7664369760    0.3282934485    0.7675641154
   Point Group: cs    Number of degrees of freedom:     8


   Energy is   -152.707511619

 Hessian updated using BFGS update

  8 Hessian modes will be used to form the next step
  Hessian Eigenvalues:
     0.001759    0.046772    0.089020    0.163773    0.182962    0.534492
     0.549287    0.728531

 Minimum search - taking simple RFO step
 Searching for Lamda that Minimizes Along All modes
 Value Taken    Lamda =  -0.00000040
 Step Taken.  Stepsize is  0.007168

                             Maximum     Tolerance    Cnvgd?
         Gradient           0.000189      0.000050      NO
         Displacement       0.004765      0.000050      NO
         Energy change     -0.000001      0.000000      NO


 New Cartesian Coordinates Obtained by Inverse Iteration

 Displacement from previous Coordinates is:  0.007712
 ----------------------------------------------------------------
             Standard Nuclear Orientation (Angstroms)
    I     Atom           X                Y                Z
 ----------------------------------------------------------------
    1      O      -1.5201247546     0.1200673302     0.0000000000
    2      H      -1.9131572771    -0.7574927848     0.0000000000
    3      H      -0.5611316829    -0.0264842934     0.0000000000
    4      O       1.3717068203    -0.0987056289     0.0000000000
    5      H       1.7677256108     0.3274504685    -0.7677998072
    6      H       1.7677256108     0.3274504685     0.7677998072
 ----------------------------------------------------------------
 Molecular Point Group                 Cs    NOp =  2
 Largest Abelian Subgroup              Cs    NOp =  2
 Nuclear Repulsion Energy =          36.57568149 hartrees
 There are       10 alpha and       10 beta electrons
 Applying Cartesian multipole field
    Component          Value
    ---------          -----
     (2,0,0)        1.00000E-11
     (0,2,0)        2.00000E-11
     (0,0,2)       -3.00000E-11
 Nucleus-field energy     =     0.0000000015 hartrees
 Requested basis set is def2-SVPD
 There are 34 shells and 78 basis functions
 A cutoff of  1.0D-14 yielded    594 shell pairs
 There are      3162 function pairs (      3504 Cartesian)
 Smallest overlap matrix eigenvalue = 1.57E-03
 Read the previous MOs as SCF guess

 -----------------------------------------------------------------------
  General SCF calculation program by
  Eric Jon Sundstrom, Paul Horn, Yuezhi Mao, Dmitri Zuev, Alec White,
  David Stuck, Shaama M.S., Shane Yost, Joonho Lee, David Small,
  Daniel Levine, Susi Lehtola, Hugh Burton, Evgeny Epifanovsky,
  Bang C. Huynh
 -----------------------------------------------------------------------
 Exchange:     0.1670 Hartree-Fock + 1.0000 wB97X-V + LR-HF
 Correlation:  1.0000 wB97X-V
 Using Euler-Maclaurin-Lebedev (75,302) quadrature formula
 Nonlocal Correlation:  VV10 with C = 0.0100 and b = 6.00 and scale = 1.00000
 Grid used for NLC:  SG-1 standard quadrature
 A restricted SCF calculation will be
 performed using DIIS
 SCF converges when DIIS error is below 1.0e-09
 ---------------------------------------
  Cycle       Energy         DIIS error
 ---------------------------------------
    1    -152.7075080142      7.49e-05  
    2    -152.7075116968      1.19e-05  
    3    -152.7075118560      4.26e-06  
    4    -152.7075118675      2.44e-06  
    5    -152.7075118719      3.07e-07  
    6    -152.7075118720      9.35e-08  
    7    -152.7075118721      6.61e-08  
    8    -152.7075118721      8.79e-09  
    9    -152.7075118721      8.55e-10  Convergence criterion met
 ---------------------------------------
 SCF time:   CPU 47.11s  wall 3.00s 
 SCF   energy =  -152.70751187
 Total energy =  -152.70751187
 
 --------------------------------------------------------------
             Orbital Energies (a.u.) and Symmetries
 --------------------------------------------------------------
 
 Alpha MOs, Restricted
 -- Occupied --                  
-19.264 -19.205  -1.160  -1.101  -0.676  -0.625  -0.536  -0.477
  1 A'    2 A'    3 A'    4 A'    1 A"    5 A'    6 A'    7 A'                 
 -0.455  -0.404
  8 A'    2 A"                                                                 
 -- Virtual --                   
  0.061   0.110   0.121   0.149   0.175   0.191   0.210   0.230
  9 A'   10 A'    3 A"   11 A'   12 A'    4 A"   13 A'   14 A'                 
  0.240   0.269   0.288   0.292   0.313   0.336   0.358   0.393
  5 A"   15 A'    6 A"   16 A'   17 A'   18 A'    7 A"   19 A'                 
  0.418   0.439   0.447   0.449   0.485   0.489   0.498   0.605
  8 A"   20 A'   21 A'    9 A"   10 A"   22 A'   23 A'   24 A'                 
  0.611   0.642   0.678   0.682   0.685   0.723   0.750   0.760
 11 A"   25 A'   26 A'   27 A'   12 A"   13 A"   28 A'   14 A"                 
  0.780   0.862   1.038   1.068   1.107   1.177   1.314   1.433
 29 A'   30 A'   31 A'   32 A'   15 A"   33 A'   34 A'   35 A'                 
  1.439   1.618   1.619   1.668   1.736   1.795   1.847   1.868
 16 A"   17 A"   36 A'   37 A'   38 A'   18 A"   19 A"   39 A'                 
  1.970   2.025   2.059   2.063   2.123   2.165   2.336   2.452
 40 A'   20 A"   41 A'   21 A"   42 A'   43 A'   22 A"   44 A'                 
  2.478   2.609   3.118   3.128   3.141   3.207   3.292   3.340
 45 A'   46 A'   47 A'   23 A"   24 A"   25 A"   48 A'   49 A'                 
  3.726   3.805   4.110   4.199
 50 A'   51 A'   26 A"   52 A'                                                 
 
 Beta MOs, Restricted
 -- Occupied --                  
-19.264 -19.205  -1.160  -1.101  -0.676  -0.625  -0.536  -0.477
  1 A'    2 A'    3 A'    4 A'    1 A"    5 A'    6 A'    7 A'                 
 -0.455  -0.404
  8 A'    2 A"                                                                 
 -- Virtual --                   
  0.061   0.110   0.121   0.149   0.175   0.191   0.210   0.230
  9 A'   10 A'    3 A"   11 A'   12 A'    4 A"   13 A'   14 A'                 
  0.240   0.269   0.288   0.292   0.313   0.336   0.358   0.393
  5 A"   15 A'    6 A"   16 A'   17 A'   18 A'    7 A"   19 A'                 
  0.418   0.439   0.447   0.449   0.485   0.489   0.498   0.605
  8 A"   20 A'   21 A'    9 A"   10 A"   22 A'   23 A'   24 A'                 
  0.611   0.642   0.678   0.682   0.685   0.723   0.750   0.760
 11 A"   25 A'   26 A'   27 A'   12 A"   13 A"   28 A'   14 A"                 
  0.780   0.862   1.038   1.068   1.107   1.177   1.314   1.433
 29 A'   30 A'   31 A'   32 A'   15 A"   33 A'   34 A'   35 A'                 
  1.439   1.618   1.619   1.668   1.736   1.795   1.847   1.868
 16 A"   17 A"   36 A'   37 A'   38 A'   18 A"   19 A"   39 A'                 
  1.970   2.025   2.059   2.063   2.123   2.165   2.336   2.452
 40 A'   20 A"   41 A'   21 A"   42 A'   43 A'   22 A"   44 A'                 
  2.478   2.609   3.118   3.128   3.141   3.207   3.292   3.340
 45 A'   46 A'   47 A'   23 A"   24 A"   25 A"   48 A'   49 A'                 
  3.726   3.805   4.110   4.199
 50 A'   51 A'   26 A"   52 A'                                                 
 --------------------------------------------------------------
 
          Ground-State Mulliken Net Atomic Charges

     Atom                 Charge (a.u.)
  ----------------------------------------
      1 O                    -0.247186
      2 H                     0.144897
      3 H                     0.086072
      4 O                    -0.310333
      5 H                     0.163275
      6 H                     0.163275
  ----------------------------------------
  Sum of atomic charges =     0.000000

 -----------------------------------------------------------------
                    Cartesian Multipole Moments
 -----------------------------------------------------------------
    Charge (ESU x 10^10)
                 0.0000
    Dipole Moment (Debye)
         X       2.8545      Y      -0.2519      Z       0.0000
       Tot       2.8656
    Quadrupole Moments (Debye-Ang)
        XX     -11.1334     XY       6.0898     YY     -13.2351
        XZ       0.0000     YZ       0.0000     ZZ     -12.2337
    Octopole Moments (Debye-Ang^2)
       XXX      10.5025    XXY      -1.5989    XYY      -1.0477
       YYY      -0.8672    XXZ       0.0000    XYZ       0.0000
       YYZ       0.0000    XZZ       6.5561    YZZ       0.7064
       ZZZ       0.0000
    Hexadecapole Moments (Debye-Ang^3)
      XXXX    -170.6561   XXXY      24.1519   XXYY     -31.3568
      XYYY       4.6216   YYYY     -15.7020   XXXZ       0.0000
      XXYZ       0.0000   XYYZ       0.0000   YYYZ       0.0000
      XXZZ     -28.9722   XYZZ       2.3737   YYZZ      -5.2092
      XZZZ       0.0000   YZZZ      -0.0000   ZZZZ     -14.6978
 -----------------------------------------------------------------
 Calculating analytic gradient of the SCF energy
 Gradient of SCF Energy
            1           2           3           4           5           6
    1  -0.0000300   0.0000341   0.0000402  -0.0000423  -0.0000011  -0.0000011
    2  -0.0000062   0.0000297  -0.0000294   0.0000140  -0.0000040  -0.0000040
    3   0.0000000   0.0000000  -0.0000000  -0.0000000   0.0000297  -0.0000297
 Max gradient component =       4.226E-05
 RMS gradient           =       2.267E-05
 Gradient time:  CPU 13.29 s  wall 0.99 s
 Geometry Optimization Parameters
   NAtoms,    NIC,     NZ,  NCons,   NDum,   NFix, NCnnct, MaxDiis
        6      25       0       0       0       0       0       0

 Cartesian Hessian Update
 Hessian updated using BFGS update


** GEOMETRY OPTIMIZATION IN DELOCALIZED INTERNAL COORDINATES **
   Searching for a Minimum

   Optimization Cycle:   7

                       Coordinates (Angstroms)
     ATOM                X               Y               Z
      1  O        -1.5201247546    0.1200673302    0.0000000000
      2  H        -1.9131572771   -0.7574927848    0.0000000000
      3  H        -0.5611316829   -0.0264842934    0.0000000000
      4  O         1.3717068203   -0.0987056289    0.0000000000
      5  H         1.7677256108    0.3274504685   -0.7677998072
      6  H         1.7677256108    0.3274504685    0.7677998072
   Point Group: cs    Number of degrees of freedom:     8


   Energy is   -152.707511872

 Hessian updated using BFGS update

  8 Hessian modes will be used to form the next step
  Hessian Eigenvalues:
     0.001955    0.033188    0.089465    0.163221    0.176123    0.532441
     0.549358    0.703424

 Minimum search - taking simple RFO step
 Searching for Lamda that Minimizes Along All modes
 Value Taken    Lamda =  -0.00000009
 Step Taken.  Stepsize is  0.001602

                             Maximum     Tolerance    Cnvgd?
         Gradient           0.000047      0.000050     YES
         Displacement       0.001111      0.000050      NO
         Energy change     -0.000000      0.000000      NO


 New Cartesian Coordinates Obtained by Inverse Iteration

 Displacement from previous Coordinates is:  0.002053
 ----------------------------------------------------------------
             Standard Nuclear Orientation (Angstroms)
    I     Atom           X                Y                Z
 ----------------------------------------------------------------
[...]
   18  -0.0195845  -0.0205134  -0.0281324   0.1665115   0.1734471   0.3816776
 ----------------------------------------------------------------
             Standard Nuclear Orientation (Angstroms)
    I     Atom           X                Y                Z
 ----------------------------------------------------------------
    1      O      -1.6602979038     0.1190212088    -0.0000000000
    2      H      -2.0475995477    -0.7615190439     0.0000000000
    3      H      -0.7071139697    -0.0240553274     0.0000000000
    4      O       1.5230241132    -0.1008629136     0.0000000000
    5      H       1.9264519209     0.3201540050    -0.7663181383
    6      H       1.9264519209     0.3201540050     0.7663181383
 ----------------------------------------------------------------
 Nuclear Repulsion Energy =          34.89405363 hartrees
 There are       10 alpha and       10 beta electrons
 old dipole drv.
            1           2           3           4           5           6
    1  -0.5195648  -0.0628395   0.0000000   0.3017963   0.0041865   0.0000000
    2  -0.0661750  -0.4221512   0.0000000  -0.0020488   0.1607201   0.0000000
    3  -0.0000000   0.0000000  -0.6823689  -0.0000000   0.0000000   0.3403069
            7           8           9          10          11          12
    1   0.2227709   0.0588998   0.0000000  -0.5463618   0.1488338   0.0000000
    2   0.0665259   0.2623894   0.0000000   0.1485199  -0.5275219   0.0000000
    3  -0.0000000  -0.0000000   0.3423120  -0.0000000   0.0000000  -0.5415277
           13          14          15          16          17          18
    1   0.2706800  -0.0745404   0.0463206   0.2706800  -0.0745404  -0.0463206
    2  -0.0734110   0.2632816   0.0461017  -0.0734110   0.2632816  -0.0461017
    3   0.0359417   0.0381778   0.2706375  -0.0359417  -0.0381778   0.2706375
 New transposed dipole drv.
            1           2           3
    1  -0.5195648  -0.0661750  -0.0000000
    2  -0.0628395  -0.4221512   0.0000000
    3   0.0000000   0.0000000  -0.6823689
    4   0.3017963  -0.0020488  -0.0000000
    5   0.0041865   0.1607201   0.0000000
    6   0.0000000   0.0000000   0.3403069
    7   0.2227709   0.0665259  -0.0000000
    8   0.0588998   0.2623894  -0.0000000
    9   0.0000000   0.0000000   0.3423120
   10  -0.5463618   0.1485199  -0.0000000
   11   0.1488338  -0.5275219   0.0000000
   12   0.0000000   0.0000000  -0.5415277
   13   0.2706800  -0.0734110   0.0359417
   14  -0.0745404   0.2632816   0.0381778
   15   0.0463206   0.0461017   0.2706375
   16   0.2706800  -0.0734110  -0.0359417
   17  -0.0745404   0.2632816  -0.0381778
   18  -0.0463206  -0.0461017   0.2706375
FINAL TENSOR RESULT:
Order 2, Length 18
    Atom      X          Y          Z
     1 Order 1, Length 18
    Atom      X          Y          Z
     1    6.466609458679335e-01   1.046479461930638e-01   0.000000000000000e+00
     2   -1.212359080463973e-01  -2.101341270213384e-01   0.000000000000000e+00
     3   -5.249100865565405e-01   1.053750599260767e-01   0.000000000000000e+00
     4   -1.006246057959188e-03   2.108981404030260e-04   0.000000000000000e+00
     5    2.456562196496954e-04  -4.988104283259206e-05  -3.229139381679218e-04
     6    2.456562190034402e-04  -4.988104209821115e-05   3.229139382854227e-04

Order 1, Length 18
    Atom      X          Y          Z
     1    1.046479461930638e-01   5.200073873947999e-01   0.000000000000000e+00
     2   -1.535175534102644e-01  -4.637466570792410e-01   0.000000000000000e+00
     3    4.960418148120208e-02  -5.752640033057026e-02   0.000000000000000e+00
     4   -1.860433062907038e-03   1.752948737530117e-03   0.000000000000000e+00
     5    5.629065407235421e-04  -2.436355646569891e-04  -1.281897168550786e-04
     6    5.629065374041403e-04  -2.436355689751488e-04   1.281897169725796e-04

Order 1, Length 18
    Atom      X          Y          Z
     1    0.000000000000000e+00   0.000000000000000e+00   2.253110207717953e-03
     2    0.000000000000000e+00   0.000000000000000e+00  -3.799334661699786e-04
     3    0.000000000000000e+00   0.000000000000000e+00  -3.341876198155472e-03
     4    0.000000000000000e+00   0.000000000000000e+00   2.321672195879547e-03
     5   -9.187796338899991e-04  -7.420146932089254e-05  -4.264628079985838e-04
     6    9.187796338899991e-04   7.420146932089254e-05  -4.264628079985838e-04


     2 Order 1, Length 18
    Atom      X          Y          Z
     1   -1.212359080463973e-01  -1.535175534102644e-01   0.000000000000000e+00
     2    1.393525259298980e-01   1.994581565290640e-01   0.000000000000000e+00
     3   -1.780355618155480e-02  -4.639203269694429e-02   0.000000000000000e+00
     4   -4.098011548126102e-04   4.785608519029157e-04   0.000000000000000e+00
     5    4.837147541287849e-05  -1.358119603106380e-05  -1.193752475375431e-05
     6    4.837147547162896e-05  -1.358119532605813e-05   1.193752751502651e-05

Order 1, Length 18
    Atom      X          Y          Z
     1   -2.101341270213384e-01  -4.637466570792410e-01   0.000000000000000e+00
     2    1.994581565290640e-01   4.617445763906531e-01   0.000000000000000e+00
     3    1.017840344842931e-02   2.157629812051449e-03   0.000000000000000e+00
     4    6.828454361363605e-04  -2.143433501769280e-04   0.000000000000000e+00
     5   -9.262642161181714e-05   2.938850773802752e-05   7.158793233080051e-06
     6   -9.262641544301754e-05   2.938850820803130e-05  -7.158788768044151e-06

Order 1, Length 18
    Atom      X          Y          Z
     1    0.000000000000000e+00   0.000000000000000e+00  -3.799334661699786e-04
     2    0.000000000000000e+00   0.000000000000000e+00   2.943438811128080e-04
     3    0.000000000000000e+00   0.000000000000000e+00   1.535305902353096e-04
     4    0.000000000000000e+00   0.000000000000000e+00  -2.781223737134283e-04
     5    6.360083083953140e-05   1.149171138617219e-04   1.050796463365718e-04
     6   -6.360083083953140e-05  -1.149171138617219e-04   1.050796463365718e-04


     3 Order 1, Length 18
    Atom      X          Y          Z
     1   -5.249100865565405e-01   4.960418148120208e-02   0.000000000000000e+00
     2   -1.780355618155480e-02   1.017840344842931e-02   0.000000000000000e+00
     3    5.475494526058580e-01  -5.931805711326570e-02   0.000000000000000e+00
     4   -4.096004843697436e-03  -6.684843880535731e-04   0.000000000000000e+00
     5   -3.699113001926633e-04   1.019867547282030e-04   6.725347393254295e-04
     6   -3.699113026895583e-04   1.019867516144280e-04  -6.725347396779323e-04

Order 1, Length 18
    Atom      X          Y          Z
     1    1.053750599260767e-01  -5.752640033057026e-02   0.000000000000000e+00
     2   -4.639203269694429e-02   2.157629812051449e-03   0.000000000000000e+00
     3   -5.931805711326570e-02   5.701592301400906e-02   0.000000000000000e+00
     4    2.399355431671330e-03  -2.169964794634279e-03   0.000000000000000e+00
     5   -1.032152995197216e-03   2.614105245360991e-04   2.546644302677609e-04
     6   -1.032152993052824e-03   2.614105263867390e-04  -2.546644285052467e-04

Order 1, Length 18
    Atom      X          Y          Z
     1    0.000000000000000e+00   0.000000000000000e+00  -3.341876198155472e-03
     2    0.000000000000000e+00   0.000000000000000e+00   1.535305902353096e-04
     3    0.000000000000000e+00   0.000000000000000e+00   5.888548223417558e-03
     4    0.000000000000000e+00   0.000000000000000e+00  -3.498779544721387e-03
     5    1.850983407828097e-03   1.888282734433831e-05   3.992728024803765e-04
     6   -1.850983407828097e-03  -1.888282734433831e-05   3.992728024803765e-04


     4 Order 1, Length 18
    Atom      X          Y          Z
     1   -1.006246057959188e-03  -1.860433062907038e-03   0.000000000000000e+00
     2   -4.098011548126102e-04   6.828454361363605e-04   0.000000000000000e+00
     3   -4.096004843697436e-03   2.399355431671330e-03   0.000000000000000e+00
     4    2.289634280666488e-01   2.277766017833375e-01   0.000000000000000e+00
     5   -1.117257219353382e-01  -1.144991981434969e-01   1.465893369321566e-01
     6   -1.117257219339869e-01  -1.144991981442019e-01  -1.465893369314517e-01

Order 1, Length 18
    Atom      X          Y          Z
     1    2.108981404030260e-04   1.752948737530117e-03   0.000000000000000e+00
     2    4.785608519029157e-04  -2.143433501769280e-04   0.000000000000000e+00
     3   -6.684843880535731e-04  -2.169964794634279e-03   0.000000000000000e+00
     4    2.277766017833375e-01   2.395952298483420e-01   0.000000000000000e+00
     5   -1.138988031838605e-01  -1.194819676255101e-01   1.528000750033807e-01
     6   -1.138988031850648e-01  -1.194819676288883e-01  -1.528000750059070e-01

Order 1, Length 18
    Atom      X          Y          Z
     1    0.000000000000000e+00   0.000000000000000e+00   2.321672195879547e-03
     2    0.000000000000000e+00   0.000000000000000e+00  -2.781223737134283e-04
     3    0.000000000000000e+00   0.000000000000000e+00  -3.498779544721387e-03
     4    0.000000000000000e+00   0.000000000000000e+00   7.087013684272231e-01
     5    1.851002828108144e-01   1.939008214630010e-01  -3.536230826903667e-01
     6   -1.851002828108144e-01  -1.939008214630010e-01  -3.536230826903667e-01


     5 Order 1, Length 18
    Atom      X          Y          Z
     1    2.456562196496954e-04   5.629065407235421e-04  -9.187796338899991e-04
     2    4.837147541287849e-05  -9.262642161181714e-05   6.360083083953140e-05
     3   -3.699113001926633e-04  -1.032152995197216e-03   1.850983407828097e-03
     4   -1.117257219353382e-01  -1.138988031838605e-01   1.851002828108144e-01
     5    1.058486334843090e-01   1.083986119041998e-01  -1.665115426755149e-01
     6    5.953004397853712e-03   6.062077022143675e-03  -1.958454104021137e-02

Order 1, Length 18
    Atom      X          Y          Z
     1   -4.988104283259206e-05  -2.436355646569891e-04  -7.420146932089254e-05
     2   -1.358119603106380e-05   2.938850773802752e-05   1.149171138617219e-04
     3    1.019867547282030e-04   2.614105245360991e-04   1.888282734433831e-05
     4   -1.144991981434969e-01  -1.194819676255101e-01   1.939008214630010e-01
     5    1.083986119041998e-01   1.130962218618954e-01  -1.734470524179920e-01
     6    6.062077022143675e-03   6.338615545093053e-03  -2.051336373884961e-02

Order 1, Length 18
    Atom      X          Y          Z
     1   -3.229139381679218e-04  -1.281897168550786e-04  -4.264628079985838e-04
     2   -1.193752475375431e-05   7.158793233080051e-06   1.050796463365718e-04
     3    6.725347393254295e-04   2.546644302677609e-04   3.992728024803765e-04
     4    1.465893369321566e-01   1.528000750033807e-01  -3.536230826903667e-01
     5   -1.665115426755149e-01  -1.734470524179920e-01   3.816775986742478e-01
     6    1.958454104021137e-02   2.051336373884961e-02  -2.813238974834881e-02


     6 Order 1, Length 18
    Atom      X          Y          Z
     1    2.456562190034402e-04   5.629065374041403e-04   9.187796338899991e-04
     2    4.837147547162896e-05  -9.262641544301754e-05  -6.360083083953140e-05
     3   -3.699113026895583e-04  -1.032152993052824e-03  -1.850983407828097e-03
     4   -1.117257219339869e-01  -1.138988031850648e-01  -1.851002828108144e-01
     5    5.953004397853712e-03   6.062077022143675e-03   1.958454104021137e-02
     6    1.058486334843090e-01   1.083986119041998e-01   1.665115426755149e-01

Order 1, Length 18
    Atom      X          Y          Z
     1   -4.988104209821115e-05  -2.436355689751488e-04   7.420146932089254e-05
     2   -1.358119532605813e-05   2.938850820803130e-05  -1.149171138617219e-04
     3    1.019867516144280e-04   2.614105263867390e-04  -1.888282734433831e-05
     4   -1.144991981442019e-01  -1.194819676288883e-01  -1.939008214630010e-01
     5    6.062077022143675e-03   6.338615545093053e-03   2.051336373884961e-02
     6    1.083986119041998e-01   1.130962218618954e-01   1.734470524179920e-01

Order 1, Length 18
    Atom      X          Y          Z
     1    3.229139382854227e-04   1.281897169725796e-04  -4.264628079985838e-04
     2    1.193752751502651e-05  -7.158788768044151e-06   1.050796463365718e-04
     3   -6.725347396779323e-04  -2.546644285052467e-04   3.992728024803765e-04
     4   -1.465893369314517e-01  -1.528000750059070e-01  -3.536230826903667e-01
     5   -1.958454104021137e-02  -2.051336373884961e-02  -2.813238974834881e-02
     6    1.665115426755149e-01   1.734470524179920e-01   3.816775986742478e-01





 ###########################################
 # Finishing finite difference calculation #
 ###########################################

 Requested basis set is def2-SVPD
 There are 34 shells and 78 basis functions
 **********************************************************************
 **                                                                  **
 **                       VIBRATIONAL ANALYSIS                       **
 **                       --------------------                       **
 **                                                                  **
 **        VIBRATIONAL FREQUENCIES (CM**-1) AND NORMAL MODES         **
 **     FORCE CONSTANTS (mDYN/ANGSTROM) AND REDUCED MASSES (AMU)     **
 **                  INFRARED INTENSITIES (KM/MOL)                   **
 **                                                                  **
 **********************************************************************
 

 Mode:                 1                      2                      3
 Frequency:        94.49                 100.67                 113.58
 Force Cnst:      0.0055                 0.0077                 0.0080
 Red. Mass:       1.0516                 1.2922                 1.0475
 IR Active:          YES                    YES                    YES
 IR Intens:        1.114                168.287                157.150
 Raman Active:       YES                    YES                    YES
               X      Y      Z        X      Y      Z        X      Y      Z
 O         -0.000 -0.000 -0.041    0.123  0.006 -0.000    0.000  0.000 -0.047
 H          0.000 -0.000  0.025   -0.317  0.200 -0.000   -0.000  0.000  0.807
 H          0.000  0.000  0.415    0.054 -0.453  0.000    0.000 -0.000 -0.124
 O         -0.000  0.000  0.035   -0.051 -0.034  0.000   -0.000 -0.000 -0.020
 H         -0.590  0.180 -0.177   -0.443  0.346  0.001    0.039  0.355  0.195
 H          0.590 -0.180 -0.177   -0.443  0.346 -0.001   -0.039 -0.355  0.195
 TransDip   0.000 -0.000  0.034   -0.389  0.145 -0.000   -0.000  0.000  0.401

 Mode:                 4                      5                      6
 Frequency:       136.47                 250.72                 440.80
 Force Cnst:      0.0352                 0.0412                 0.1198
 Red. Mass:       3.2092                 1.1120                 1.0467
 IR Active:          YES                    YES                    YES
 IR Intens:       58.962                109.053                177.742
 Raman Active:       YES                    YES                    YES
               X      Y      Z        X      Y      Z        X      Y      Z
 O         -0.234  0.019 -0.000   -0.030  0.011  0.000    0.000 -0.000 -0.032
 H         -0.615  0.186 -0.000    0.505 -0.226 -0.000    0.000 -0.000  0.030
 H         -0.289 -0.382  0.000    0.049  0.540 -0.000    0.000  0.000  0.904
 O          0.300 -0.046  0.000    0.037 -0.068 -0.000   -0.000 -0.000 -0.040
 H         -0.072  0.317  0.003   -0.332  0.293  0.002    0.282 -0.015  0.101
 H         -0.072  0.317 -0.003   -0.332  0.293 -0.002   -0.282  0.015  0.101
 TransDip  -0.228  0.093 -0.000   -0.042  0.332 -0.000    0.000  0.000  0.427

 Mode:                 7                      8                      9
 Frequency:      1595.90                1610.40                3871.47
 Force Cnst:      1.6253                 1.6507                 9.2308
 Red. Mass:       1.0831                 1.0803                 1.0453
 IR Active:          YES                    YES                    YES
 IR Intens:       87.222                 76.347                  9.226
 Raman Active:       YES                    YES                    YES
               X      Y      Z        X      Y      Z        X      Y      Z
 O         -0.005  0.008 -0.000    0.032 -0.061 -0.000   -0.006  0.007  0.000
 H          0.085 -0.038  0.000   -0.619  0.273 -0.000   -0.050 -0.098  0.000
 H         -0.014 -0.095  0.000    0.108  0.713 -0.000    0.142 -0.016  0.000
 O          0.049  0.050 -0.000    0.007  0.005  0.000   -0.034 -0.035 -0.000
 H         -0.388 -0.398 -0.424   -0.058 -0.048 -0.058    0.271  0.281 -0.575
 H         -0.388 -0.398  0.424   -0.058 -0.048  0.058    0.271  0.281  0.575
 TransDip  -0.183 -0.237  0.000   -0.159  0.230 -0.000    0.081  0.055  0.000

 Mode:                10                     11                     12
 Frequency:      3880.44                3975.76                3980.35
 Force Cnst:      9.2715                10.0828                10.1000
 Red. Mass:       1.0451                 1.0827                 1.0820
 IR Active:          YES                    YES                    YES
 IR Intens:       11.660                 79.384                 83.259
 Raman Active:       YES                    YES                    YES
               X      Y      Z        X      Y      Z        X      Y      Z
 O         -0.026  0.042  0.000    0.000  0.000 -0.000   -0.060 -0.036 -0.000
 H         -0.300 -0.590  0.000   -0.000 -0.000  0.000    0.302  0.675  0.000
 H          0.723 -0.068  0.000   -0.000  0.000 -0.001    0.661 -0.102 -0.000
 O          0.006  0.006 -0.000   -0.000 -0.000 -0.071    0.000  0.000 -0.000
 H         -0.050 -0.051  0.106   -0.296 -0.308  0.561   -0.004 -0.004  0.009
 H         -0.050 -0.051 -0.106    0.296  0.308  0.561   -0.004 -0.004 -0.009
 TransDip   0.062 -0.090  0.000   -0.000 -0.000  0.285    0.258  0.138  0.000

 STANDARD THERMODYNAMIC QUANTITIES AT   298.15 K  AND     1.00 ATM

   This Molecule has  0 Imaginary Frequencies
   Zero point vibrational energy:       28.664 kcal/mol

   Atom    1 Element O  Has Mass   15.99491
   Atom    2 Element H  Has Mass    1.00783
   Atom    3 Element H  Has Mass    1.00783
   Atom    4 Element O  Has Mass   15.99491
   Atom    5 Element H  Has Mass    1.00783
   Atom    6 Element H  Has Mass    1.00783
   Molecular Mass:    36.021140 amu
   Principal axes and moments of inertia in amu*Bohr^2:
                             1           2           3
    Eigenvalues --        8.14272   337.64649   337.95779
          X               0.99955     0.00000    -0.03013
          Y              -0.03013     0.00000    -0.99955
          Z               0.00000     1.00000     0.00000
   Rotational Symmetry Number is   1
   The Molecule is an Asymmetric Top
   Translational Enthalpy:        0.889 kcal/mol
   Rotational Enthalpy:           0.889 kcal/mol
   Vibrational Enthalpy:         30.935 kcal/mol
   gas constant (RT):             0.592 kcal/mol
   Translational Entropy:        36.674  cal/mol.K
   Rotational Entropy:           21.457  cal/mol.K
   Vibrational Entropy:          15.631  cal/mol.K

   Total Enthalpy:               33.305 kcal/mol
   Total Entropy:                73.762  cal/mol.K

   Quasi-RRHO corrections using alpha = 4, and omega = 100 cm^-1
   QRRHO-Vib. Enthalpy:          30.414 kcal/mol
   QRRHO-Vib. Entropy:           14.729  cal/mol.K
   QRRHO-Total Enthalpy:         32.784 kcal/mol
   QRRHO-Total Entropy:          72.860  cal/mol.K
 Total job time:  634.72s(wall), 764.09s(cpu) 
 Wed May 29 16:29:29 2024

        *************************************************************
        *                                                           *
        *  Thank you very much for using Q-Chem.  Have a nice day.  *
        *                                                           *
        *************************************************************


