Jobname.Temp
SP        R                             def2-TZVPPD         
Number of atoms                            I                3
Charge                                     I                0
Multiplicity                               I                1
Number of electrons                        I               10
Number of alpha electrons                  I                5
Number of beta electrons                   I                5
Atomic numbers                             I   N=           3
           8           1           1
Current cartesian coordinates              R   N=           9
  0.00000000E+00  0.00000000E+00  2.22595900E-01 -1.44580489E+00  0.00000000E+00
 -8.81160255E-01  1.44580489E+00  0.00000000E+00 -8.81160255E-01
Nuclear charges                            R   N=           3
  8.00000000E+00  1.00000000E+00  1.00000000E+00
Number of basis functions                  I               74
Number of contracted shells                I               28
Number of primitive shells                 I               41
Highest angular momentum                   I                3
Largest degree of contraction              I                6
Shell types                                I   N=          28
           0           0           0           0           0           0
           1           1           1           1          -2          -2
          -2          -3           0           0           0           1
           1           1          -2           0           0           0
           1           1           1          -2
Number of primitives per shell             I   N=          28
           6           2           1           1           1           1
           4           1           1           1           1           1
           1           1           3           1           1           1
           1           1           1           3           1           1
           1           1           1           1
Shell to atom map                          I   N=          28
           1           1           1           1           1           1
           1           1           1           1           1           1
           1           1           2           2           2           2
           2           2           2           3           3           3
           3           3           3           3
Primitive exponents                        R   N=          41
  2.70323826E+04  4.05238714E+03  9.22327227E+02  2.61240710E+02  8.53546414E+01
  3.10350352E+01  1.22608607E+01  4.99870760E+00  1.17031082E+00  4.64747410E-01
  1.85045364E-01  7.02880263E-02  6.32749548E+01  1.46270494E+01  4.45012235E+00
  1.52757996E+00  5.29351179E-01  1.74784213E-01  5.11127457E-02  2.31400000E+00
  6.45000000E-01  1.46964774E-01  1.42800000E+00  3.40613410E+01  5.12357460E+00
  1.16466260E+00  3.27230410E-01  1.03072410E-01  1.40700000E+00  3.88000000E-01
  9.57741296E-02  1.05700000E+00  3.40613410E+01  5.12357460E+00  1.16466260E+00
  3.27230410E-01  1.03072410E-01  1.40700000E+00  3.88000000E-01  9.57741296E-02
  1.05700000E+00
Contraction coefficients                   R   N=          41
  5.72273352E-04  4.43532335E-03  2.30201077E-02  9.28224907E-02  2.93785000E-01
  6.74016045E-01  6.38399370E-01  3.95345871E-01  1.00000000E+00  1.00000000E+00
  1.00000000E+00  1.00000000E+00  1.20183322E-02  8.30054218E-02  3.19917439E-01
  7.07155429E-01  1.00000000E+00  1.00000000E+00  1.00000000E+00  1.00000000E+00
  1.00000000E+00  1.00000000E+00  1.00000000E+00  2.54393072E-02  1.90085949E-01
  8.52441130E-01  1.00000000E+00  1.00000000E+00  1.00000000E+00  1.00000000E+00
  1.00000000E+00  1.00000000E+00  2.54393072E-02  1.90085949E-01  8.52441130E-01
  1.00000000E+00  1.00000000E+00  1.00000000E+00  1.00000000E+00  1.00000000E+00
  1.00000000E+00
Coordinates of each shell                  R   N=          84
  0.00000000E+00  0.00000000E+00  2.22595900E-01  0.00000000E+00  0.00000000E+00
  2.22595900E-01  0.00000000E+00  0.00000000E+00  2.22595900E-01  0.00000000E+00
  0.00000000E+00  2.22595900E-01  0.00000000E+00  0.00000000E+00  2.22595900E-01
  0.00000000E+00  0.00000000E+00  2.22595900E-01  0.00000000E+00  0.00000000E+00
  2.22595900E-01  0.00000000E+00  0.00000000E+00  2.22595900E-01  0.00000000E+00
  0.00000000E+00  2.22595900E-01  0.00000000E+00  0.00000000E+00  2.22595900E-01
  0.00000000E+00  0.00000000E+00  2.22595900E-01  0.00000000E+00  0.00000000E+00
  2.22595900E-01  0.00000000E+00  0.00000000E+00  2.22595900E-01  0.00000000E+00
  0.00000000E+00  2.22595900E-01 -1.44580489E+00  0.00000000E+00 -8.81160255E-01
 -1.44580489E+00  0.00000000E+00 -8.81160255E-01 -1.44580489E+00  0.00000000E+00
 -8.81160255E-01 -1.44580489E+00  0.00000000E+00 -8.81160255E-01 -1.44580489E+00
  0.00000000E+00 -8.81160255E-01 -1.44580489E+00  0.00000000E+00 -8.81160255E-01
 -1.44580489E+00  0.00000000E+00 -8.81160255E-01  1.44580489E+00  0.00000000E+00
 -8.81160255E-01  1.44580489E+00  0.00000000E+00 -8.81160255E-01  1.44580489E+00
  0.00000000E+00 -8.81160255E-01  1.44580489E+00  0.00000000E+00 -8.81160255E-01
  1.44580489E+00  0.00000000E+00 -8.81160255E-01  1.44580489E+00  0.00000000E+00
 -8.81160255E-01  1.44580489E+00  0.00000000E+00 -8.81160255E-01
Orthonormalization Matrix                  R   N=        2775
  3.03742101E-01 -6.13360147E-01  1.14994355E-02  5.10596355E-03  3.75233231E-03
  1.31396771E+00 -1.28273727E-16  3.22249280E-16  2.29773231E-01 -6.13360147E-01
 -8.02402338E-03 -5.95478162E-03 -1.50615164E-02  6.05715277E-17  5.84222322E-04
 -5.59957297E-03 -1.46598375E-02 -4.12109872E-03  5.86558341E-03 -2.87760854E-16
 -6.23747976E-15 -4.58815491E-01 -4.34084544E-02  9.19376081E+00 -2.37516197E-15
 -2.79240805E-15  8.22446825E-15  2.28730069E-14  3.75990013E-01  3.50865211E-02
 -2.95276510E-15 -2.67456358E+00  5.62475272E-16 -3.06334676E-15  1.15384465E-01
 -5.25813919E-02  1.00899234E-14 -1.46303509E+00 -4.89161730E-15  6.10107850E-03
  1.29382403E-14 -3.80620725E-14  5.51007151E+00  1.96355441E-01  3.81367185E-15
 -5.74920527E-16  3.13020701E-01  1.92943318E-03  1.03172644E-15 -4.97829726E-16
  1.94887476E-17 -1.70461241E-15  3.01884933E-01 -4.76404485E-15 -2.72897810E-15
  1.81559771E-15 -2.85369679E+00 -8.28217863E-02  3.88100103E-01 -1.22326010E-15
 -1.10040122E-01  3.57434044E-01  4.80757397E-01 -6.23747976E-15  1.40846228E-17
 -3.03267942E-15  2.37497536E-15 -6.21122410E-02 -2.59291249E-15  9.13088638E-13
  1.00652595E-15  2.93202794E-01  9.03864087E-01 -8.48856668E-16  1.41323001E-13
  1.53426783E-15 -8.85805681E-16  2.85692859E-16 -1.13292868E-02  4.60913036E+00
  6.12113360E-03  3.78765983E-02  5.71889803E-16  1.91521468E-02 -1.76347584E-01
  2.74676463E+00  8.95683698E-15 -2.70952574E-14  1.04631784E-03 -5.32275419E-17
 -4.34084544E-02  5.92605909E-02 -5.14488510E+00 -2.55004177E-16 -9.69625630E-02
 -1.98655028E-16 -5.23415053E-02  3.46846185E-01  2.78569670E-02  9.13088638E-13
  4.21538475E-17 -1.03710232E-02  1.67850158E-15 -3.66112525E-16 -4.59979233E-15
  4.21929659E-03  3.71193921E-14  9.01826455E-15 -1.09133081E-01  1.55040917E-15
 -2.39247367E-15  7.56939204E+00  1.39095386E-01  6.63715809E-14 -1.37755913E-15
 -3.77014385E-16  1.49717085E-15 -7.07923668E-15 -3.17428696E-16  6.26072914E-16
  1.04823657E-14 -2.70952574E-14 -7.76040843E-01  2.29773231E-01  1.59870425E-02
 -9.60843808E-03 -1.76679958E-14  1.28677838E+00  1.92765722E-01  4.82599181E-02
  4.49737423E-16  2.40201627E-02 -7.97929913E-17  2.56280125E-02  2.28395882E-16
 -2.37516197E-15 -6.62771398E-01  3.42064278E-14 -9.69625630E-02  1.77483827E-01
  5.61196786E-02  5.89358187E-16  4.77287513E-15  3.57434044E-01  1.36962365E-14
 -6.96183000E-16  2.76197911E-02  1.16183382E-15 -3.71117548E-02 -4.33444652E-15
 -5.19733644E-02  1.33960807E-16  1.11189233E-15 -4.11816798E-02 -5.88943259E-15
 -1.09133081E-01  4.31461512E-15  7.30386572E-15  1.00891649E-01 -4.59721328E-14
 -1.12180410E+00 -6.82083435E-16  8.22446825E-15  2.36024223E-01  3.31503193E-16
 -1.87310067E-02  1.06248977E-16 -6.25089616E-01 -1.09996216E-15 -4.38356785E-01
  3.64154314E-01  3.14555628E-16 -5.57288099E-16 -2.98623595E-15 -5.68799048E-02
 -1.20334026E-14  6.12525346E-02  1.26970253E-13  2.87559042E-16 -2.10383515E-16
  4.37867858E-03  3.51359458E-15 -2.58420698E-02  1.58680954E-02  6.94652975E-16
 -2.01920750E-02  9.78113185E-16 -3.71593609E-16 -6.61718606E-17  1.23140427E-16
  2.16658181E-14 -7.33818459E-15  5.33339807E-01  2.16959339E-15 -3.77939775E-01
 -4.97163400E-02  3.83410597E-15 -6.77974951E-16 -1.32580087E-01  8.13040550E-17
  9.01028918E-16  2.44836002E-16 -2.41894191E-02 -4.06353333E-15  3.80560803E-16
 -1.59020339E-02  5.40258263E-16 -3.45479274E-01  6.78054221E-17  5.44775070E-16
 -4.10981914E-15  2.57830203E-15  8.13814225E-15  1.65369804E-14  1.12074766E-03
  1.80752694E-14 -2.77700050E-01 -2.18135552E-13 -1.69492701E+00 -5.65657545E-16
 -3.57301484E-02 -7.36797788E-03  3.83603691E-17 -8.90677963E-17  5.24409810E-02
 -7.04007307E-17 -5.39346718E-16 -4.85416772E-03 -7.84811197E-16  1.79351207E-01
  6.82544004E-16  8.26838422E-15 -4.69633271E-02 -9.83160062E-02  3.33678271E+00
 -4.97163400E-02 -3.50757707E-14 -3.26497477E-16 -5.44487862E-02  1.76923871E-01
 -2.70351554E-17  8.68718005E-16  1.07740615E-02 -1.59365004E-01  3.09759283E-01
  3.90171871E-02  2.02481760E-15  1.86247842E-14 -9.81841321E-03  6.01289622E-16
  1.14458043E-15 -1.12284756E-13  1.08233758E-01 -4.90659318E-15 -3.11320498E-15
  3.57565001E-02  7.68037564E-01  3.34585740E-15  2.36458431E-15 -1.79295835E-01
  3.29668219E-01 -7.59566322E-02 -1.17200105E-14  1.23140427E-16 -1.97903234E-16
  1.20553826E-01  3.97221221E-03 -6.46464532E-16  6.35300336E-16  1.14662975E-15
 -3.83730338E-16  8.51869218E-02  8.36843798E-16  1.58934585E-01  4.49230123E-01
  4.80405114E-01  4.16895418E-16  3.46392861E-15 -9.18077547E-01  3.77915848E-15
  2.47270811E-15 -2.91935649E-15  1.33666499E-14 -3.13103246E-16 -4.73117626E-14
 -3.88756463E-01 -5.74820402E-16 -1.87855271E-02  2.68736329E-16 -5.31288351E-16
 -1.14653843E-01  1.10311911E-02 -7.67209813E-03 -3.81899233E-02  4.60771166E-16
 -4.23699685E-16 -1.33984530E-02  2.47238788E-02 -8.46611518E-15 -2.86718959E-16
  1.45118014E-14  4.34460369E-01 -1.29324327E-15  1.01665238E-15  4.63673347E-02
  5.00960727E-15 -2.10938950E-14 -3.29927150E-01 -4.80405114E-01  3.55791149E-15
  2.18497102E-02 -2.58635190E-01 -3.13103246E-16 -1.59020339E-02  1.73702694E-14
 -7.19506360E-16 -2.91599763E-16  2.88617164E-01 -2.04961950E-16 -1.04856097E-02
  1.42490375E-02 -6.52878586E-16  5.21439211E-01  6.94652975E-16 -3.74384180E-02
 -6.38781571E-16 -5.44482085E-01 -3.42075474E-15  9.10368978E-17  2.56006237E-01
  1.03183383E-15  6.80290347E-14 -1.19901198E-15 -1.12180410E+00  8.20422809E-17
 -9.39794369E-16 -8.97732581E-17  3.43078732E-02 -1.59837999E-16 -4.96069104E-16
 -9.71450947E-16  3.32291318E-02  1.43147018E-16  6.04274627E-16 -8.44567183E-16
 -6.77688770E-18 -8.91203897E-17 -4.79706721E-01 -2.82080026E-15 -2.80166055E-15
 -2.83148975E-14  8.92802194E-02  2.97533116E-01  7.45102865E-02  6.22022192E-16
  1.06947933E-01 -1.78106060E-15  2.97292351E-15  9.81197490E-16  6.02330929E-01
 -3.38718342E-16  1.38824542E-01  1.58120528E-15 -8.49723599E-02  1.72711916E-15
 -4.55220571E-17 -4.94583997E-16 -5.82677515E-01 -2.77700050E-01  2.55368406E-16
 -3.55892330E-02 -3.63233915E-01  8.46105345E-03  7.37077782E-01 -9.17283609E-16
 -2.74066998E-02  2.21856375E-16 -9.14604025E-16  1.11535953E-15 -2.89705887E-02
 -2.18419688E-15  5.49397652E-01 -1.38941103E-14 -3.57565001E-02 -4.41471527E-17
 -3.90171871E-02  3.89519119E-01 -1.42743427E-15 -2.05832413E-03 -4.92760970E-15
 -4.30157994E-15  4.47272809E-03 -8.68400313E-17  9.23868344E-16 -2.11163905E-01
  3.21364434E-03  1.96630164E-02  5.59603441E-16  7.53031173E-02 -4.60771288E-15
 -8.27745747E-16 -3.70214312E-01  2.16005481E-15  1.27521281E-01  4.09583312E-01
  2.67624345E-01 -7.27393837E-18  1.09801518E-02  4.90128188E-17 -3.50757707E-14
 -1.40070009E+00  1.10138364E-15 -3.51262514E-16  2.23589597E-15 -1.65427620E-15
  2.51595202E-02 -5.74928845E-16  2.26539543E-16  1.58680954E-02  5.36337288E-16
  1.87855271E-02  2.92855663E-16  2.25518793E-16 -4.25973349E-02  2.83067260E-15
 -6.85582839E-15 -4.90203180E-01 -6.02367808E-02 -3.70948550E-16  1.89763141E-16
 -8.66501733E-15 -8.51485062E-15  1.42822863E-15  8.82466729E-16  3.12686913E-16
  3.21561806E-16  9.38913750E-01  7.45102865E-02  2.67875839E-02 -1.38388031E-02
  1.26970253E-13  2.63257730E-16  1.46336372E-14 -4.69450899E-01 -6.50396200E-03
  6.69173525E-15 -1.38574104E-15  4.60771166E-16  8.85841648E-16  2.33872798E-15
  6.05241649E-16  1.29382403E-14 -1.94444571E-01 -4.53452436E-01  2.51492397E-16
 -6.47121675E-01 -8.74453101E-02 -8.28217863E-02  5.70498405E-16  5.64807606E-02
 -9.00507132E-16 -3.29849274E-01 -1.04572337E-15  3.09569581E-03  3.50904523E-15
 -1.08305203E-02  3.45273528E-15 -9.18077547E-01  2.19048307E-15  5.28263264E-16
 -3.55936285E-16 -2.76223871E-13 -3.86438814E-15 -8.82907189E-15 -5.02548175E-02
 -1.27188241E-17 -2.96492627E-16 -6.18890611E-17  2.87559042E-16 -3.28252657E-17
 -2.54001416E-16  6.01289622E-16  8.51166495E-03  5.70498405E-16 -2.07018681E-15
  2.57830203E-15 -1.24709696E-15 -6.78668296E-16 -1.65427620E-15  1.56273954E-14
  8.49732306E-15 -6.46997949E-17 -8.00946817E-16  5.43744532E-17 -6.72675914E-16
 -1.12642899E-14  5.97813080E-15 -1.94223783E-16  6.07491594E-16 -1.04515474E-02
  1.32615319E-01 -4.89101383E-01 -3.53114784E-01  3.16890150E-16  1.84660112E+00
 -6.76162815E-16  8.69605025E-17 -4.06346014E-16  1.33911343E-01  1.38824542E-01
 -3.25697036E-02 -1.11449484E-16 -5.71723703E-16  1.22035376E-15  7.07619297E-17
 -7.84380079E-02  2.22660564E-16 -5.57149130E-02 -2.56375534E-13  2.83067260E-15
 -1.44191005E-15  8.91747948E-14  1.28581085E+00 -8.96178824E-03 -2.36630330E-15
  1.35329198E-14 -4.59979233E-15 -9.71220833E-16 -2.60167607E-15  2.08562760E-14
 -8.02208759E-01  1.80126515E-14  9.14205054E-04 -9.14205054E-04  1.96352322E-01
  1.01089902E-15 -1.86454991E-01  2.10536945E-15 -9.70524879E-01  2.65990232E-16
 -1.46365444E-16 -1.71050336E-15 -3.17428696E-16 -8.39690085E-16 -5.08917058E-17
  6.94948974E-16  1.89763141E-16  2.15554098E-18 -3.08889314E-01 -1.31519091E-01
  7.98183965E-02 -3.87130721E-01 -3.29554104E-01  1.58986683E-15 -9.59975275E-02
  1.08504261E-16  3.88334660E-15 -4.73762582E-15 -2.04589828E-15  8.20331799E-16
 -6.30286858E-01 -8.06845043E-16  5.18221994E-01  3.45273528E-15 -2.29372304E-01
 -6.75812480E-16  2.31192011E-16 -1.59433104E-03 -6.75908220E-17 -1.22590416E-01
  2.28395882E-16  1.41586844E-15 -2.93983166E-16 -1.03976024E-16 -2.98488399E-16
 -1.73638371E-02  1.19733425E-15  3.53031480E-16 -3.59260205E-16  1.18549546E-01
  3.66307668E-14 -8.81001241E-03  1.54859917E-01 -3.66198075E-02  3.22249280E-16
  1.04823657E-14  3.93330655E-16  1.06248977E-16 -6.48214752E-16  3.67720299E-14
  1.11189233E-15  1.19178338E-01  5.28263264E-16  9.07550197E-16 -1.53724630E-15
 -2.60736355E-02 -2.75085094E-15  3.42850432E-15  5.36783587E-02 -2.10938950E-14
  6.97923038E-16  3.74077527E-02  1.49768526E-16  2.81083417E-16  1.18298186E+00
  7.25689919E-16 -2.21345573E-01 -3.17394599E-16  2.71245127E-15  2.18418298E-16
 -7.84454592E-15 -3.02377114E-16 -5.30504907E-16 -4.38131768E-17 -4.23699685E-16
 -6.20723410E-17 -3.17394599E-16 -1.88059154E-14  1.22035376E-15  3.50904523E-15
 -3.30131944E-16 -1.38470821E-16  1.09801518E-02 -1.04517455E-16  6.26660140E-17
  8.64489210E-16 -2.28875192E-15 -9.25467838E-17  1.27860049E-02 -8.22064902E-16
  1.12800859E-15 -3.38422410E-01 -7.09443129E-16 -2.23750669E-15  1.62909462E-15
 -3.60464110E-15 -4.85853948E-02 -5.05894747E-16 -4.34564488E-16  4.08650373E-16
  6.05431438E-16 -3.42885448E-16 -1.62008970E-16  6.31589404E-16  1.88878568E-17
 -3.70892551E-16  1.30428541E-16 -3.11653885E-16 -9.47327591E-02  2.99346756E-16
 -3.07067405E-02 -1.13835067E-01 -8.13304956E-02 -3.34786851E-03 -8.59713494E-02
  2.05440193E-16  6.16158257E-03  8.92552706E-16  1.95249953E-16 -1.14441397E-01
  3.42065368E-16 -1.65974402E-01  6.16158257E-03  1.15570709E+00  1.77634833E-01
  1.35329198E-14 -9.40389680E-03 -1.70121213E-01 -1.41425021E-14 -4.53452436E-01
 -9.16824624E-16  2.95958737E-15 -7.79176253E-17 -2.10973888E-16 -2.19780077E-15
  1.63957777E-01  1.43351958E-01 -5.74920527E-16  1.35425468E-01  1.64785257E-16
 -7.86294043E-17 -2.21345573E-01  3.42673723E-15  2.89695606E-02 -9.01288099E-03
 -2.35258075E-01  1.43100100E-16 -9.16847809E-03 -3.69209983E-02 -5.72445711E-16
 -2.70439401E-02 -2.78811761E-02  2.25528317E-01  1.68001478E-01  5.02312350E-16
 -2.17094834E-01 -6.30395883E-02  1.22502569E-01  2.25528317E-01 -2.51524012E-16
  3.93836168E-02 -1.49163312E-16  5.28047150E-02 -1.70121213E-01  6.59535710E-16
 -3.63583566E-02 -4.59022700E-02 -7.67156936E-02  9.25721203E-01 -4.68720241E-02
 -2.18629924E-16 -7.09213929E-16  3.04741714E-16  1.73661914E-16 -4.65743953E-16
  5.44775070E-16 -1.23404157E-16 -5.19968371E-16  2.07332891E-02 -1.24153305E-01
 -1.74161880E-01  9.04680806E-16 -8.44567183E-16 -2.04141934E-16  1.73661914E-16
 -2.28478851E-16 -4.17395584E-17 -5.36343516E-17  1.24633808E-16 -2.74740876E-16
  3.40785070E-02  1.98278409E-01  1.02443068E-02  8.33572034E-03  1.18169087E-15
  4.47272809E-03 -2.28875192E-15  9.60691029E-17 -1.04856097E-02  1.76828730E-03
 -6.94424448E-16 -4.85779903E-02  8.47424697E-16  2.34471972E-15 -2.53945546E-02
 -6.45250005E-01  4.72119999E-02  8.74957268E-16  4.00941148E-16 -4.68720241E-02
 -1.27488188E-15  2.44836002E-16  5.75385671E-17  1.86765500E-16 -7.61576132E-18
  1.04405281E+00  1.04072219E-16 -9.98644236E-17 -5.95610065E-17 -5.95478162E-03
 -2.75373233E-03  5.61661757E-16 -1.97999457E-16 -8.10555642E-16  1.91521468E-02
  1.16766650E-15 -6.48426756E-16  3.01884933E-01  6.30395883E-02 -2.46442245E-01
 -2.85096033E-14 -1.44237190E-01  8.72611651E-02 -1.68951353E-02 -1.89082980E-01
 -1.68687508E-16 -3.54192133E-03  1.77634833E-01  2.73064729E-01 -1.27860049E-02
  6.05441140E-15  6.81893667E-02  7.84380079E-02  2.26375670E-15 -5.67571856E-01
 -8.46105345E-03 -2.17501855E-15 -5.98372020E-16  1.08994830E-16 -1.49969907E-17
 -3.43176297E-16 -9.90700175E-17  1.55040917E-15 -8.99584599E-16  3.53989341E-18
 -4.40594922E-17 -6.54613347E-17  2.63257730E-16 -3.35928983E-16  2.66128628E-01
 -1.59433104E-03 -1.03710232E-02 -3.27139126E-16 -6.79904547E-17  9.04284024E-02
  6.31818453E-16  1.25719544E-14  7.60045229E-16 -5.23415053E-02 -2.14023374E-16
 -1.37523283E-16  2.28730069E-14  3.88389632E-16 -8.13304956E-02  1.89082980E-01
  3.22009527E-16  1.05584696E-15 -1.07393707E-02  2.41137258E-01 -7.33818459E-15
 -7.76040843E-01 -9.35994261E-03 -2.25525130E-03 -5.59957297E-03 -2.69410123E-03
  2.45237186E-16 -4.58531473E-02  5.92605909E-02 -7.65665058E-15 -2.83148975E-14
 -2.47637001E+00 -3.14559380E-14  1.46647200E-01 -1.56496395E+00  1.40428277E+00
 -2.46442245E-01 -2.04996873E-01  5.84222322E-04  1.03172644E-15  6.66088568E-16
 -1.54550590E-02 -4.14937761E-16  2.38331029E-02  1.25377546E-02  6.60298052E-03
  8.53372721E-16 -7.20143892E-16  3.70182765E-01 -1.66626323E-02  1.25190548E-14
  2.97533116E-01 -3.57301484E-02 -8.70970120E-16  4.40835722E-02  4.72119999E-02
 -8.80570296E-01 -1.49876138E-15 -4.85779903E-02 -5.18221994E-01 -2.60736355E-02
 -7.92303664E-03  5.36548267E-16 -2.25525130E-03 -8.77284851E-17 -3.51266795E-16
  1.58773815E-17  5.57148680E-03  9.04282877E-14 -1.25403810E+00  8.44395741E-02
  4.83309215E-15  2.36458431E-15 -3.22548034E+00  4.33421149E-02 -1.24828481E-13
 -3.19257607E-15  1.07222184E-02 -1.77483827E-01 -1.21493433E-15 -2.67456358E+00
  1.06947933E-01  3.57882528E-16 -5.53815298E-14 -1.03242932E-02 -3.13783800E-15
  1.46307049E-15 -1.14508477E-16  1.10071142E-14  2.11111837E-15  3.88100103E-01
  2.22572632E+00 -2.28478851E-16  3.00156275E-15 -4.21442894E-15 -1.83500165E-02
 -3.25697036E-02  4.28782961E-14 -1.83014606E-16  1.92943318E-03 -8.80570296E-01
  4.38994829E-15 -9.35994261E-03  6.40850471E-02 -5.03180013E-16 -1.14994355E-02
 -1.14536570E-16 -1.47847198E-17 -1.78106060E-15  5.52984657E-04  5.65341992E-14
 -1.76731788E-02 -1.12642899E-14  9.60843808E-03  9.88712256E-16  1.00891649E-01
 -1.60615790E-02 -4.67594583E-02  4.02100283E-16 -3.49618948E-16 -1.39406526E-01
 -4.32016738E-01 -9.90546968E-15  1.05932937E-14  9.96751360E-02 -1.18690720E-15
 -1.96432563E-14  6.15832878E-03 -9.83160062E-02  2.54413068E-16  4.51324428E-03
 -6.90430020E-01 -5.45597017E-01 -1.21962845E+00 -8.49723599E-02  1.96271622E-15
 -4.55807706E+00  4.37867858E-03 -3.29101145E-15  5.82822812E-14  1.02443068E-02
  9.09086829E-01  7.45636181E-16  1.11352223E-15 -2.18533238E-16  5.55361083E-16
 -7.29204064E-03 -2.80778658E-15  1.89626611E+01  4.12979017E-02  1.07222184E-02
 -4.11864721E-02 -1.16690670E-15  3.76383440E-15  4.80720804E-01 -2.52344768E-15
  8.17717191E-17  1.13107950E-02 -2.14023374E-16 -6.77688770E-18 -1.06881109E-01
  1.73006633E-02 -6.32324029E-03 -3.62714002E-16 -9.57905989E-03  3.70583461E-16
  2.18497102E-02 -2.46062338E-15  7.53313788E-16 -1.25403810E+00 -4.33883406E-16
 -1.69125007E-16 -3.65132856E-02  6.90332456E-16  1.75830596E-15  2.35718126E-02
 -3.66572074E-02  1.46427289E-16  4.38844721E-16 -2.31343422E-15  1.16183382E-15
 -2.74740876E-16  3.29476558E-17 -1.64412048E-15 -1.00527751E-02 -3.08071570E-04
 -1.24522297E-16 -2.18135552E-13  1.40165109E-16  3.32908458E-02  5.34874201E-15
  4.58531473E-02 -1.96432563E-14 -3.13893376E-16  1.29796162E-01  7.79183887E-01
  8.24462764E-02  7.79752598E-16  8.33150726E-16  5.65341992E-14 -3.62714002E-16
  1.30128498E-15 -3.29794154E-15  3.00156275E-15 -1.28786829E-02 -3.63233915E-01
  6.90332456E-16  1.44451740E-15  5.94326498E-01 -1.11449484E-16 -9.30620317E-15
 -6.20723410E-17 -3.36496394E-16  4.76453075E-15 -4.89161730E-15 -2.22932041E-02
  4.79073564E-16  1.00359708E-01  1.08023997E-14  3.12686913E-16 -1.80497229E-15
 -2.65330111E-15 -2.50462205E-02  1.50644159E-02  3.21364434E-03 -6.42558753E-16
  6.98826678E-17 -4.37156357E-16  4.73869604E-16 -4.13713458E-17 -1.63664315E-15
  4.41229299E-15 -2.62302661E-15 -1.13325263E-01  2.11924593E-17  3.38759401E-02
  2.31718156E-15 -1.16503146E-01  4.58934665E-01  2.66128628E-01 -3.87628260E-01
  2.14567966E+00 -3.29619403E-13  6.69173525E-15  5.82822812E-14  1.53316591E-01
  7.64810038E-16 -4.63753421E-15  1.41581510E-15 -4.24051579E-01  1.15677525E-15
 -4.63753421E-15 -5.07051493E-16 -4.56405570E-01 -2.65793943E-16  4.04908853E-16
 -1.65599086E-02 -1.64906085E-01  2.25518793E-16  9.26271387E-16  8.64489210E-16
 -2.39732330E-16 -3.51285100E-16 -3.94353609E-16  5.86558341E-03 -1.93551376E-01
 -3.55936285E-16  4.63092732E-01 -3.51262514E-16 -1.66877697E-15 -3.67258432E-16
 -1.14536570E-16 -5.03102147E-03 -1.09304311E-01  3.71768284E-16 -1.86198600E-16
 -1.52331638E-01 -1.40070009E+00 -4.75839639E+00  6.01805216E-01 -9.90546968E-15
 -6.79298751E-15 -2.24745399E-02 -3.87628260E-01  2.76121917E-16 -2.10867588E-03
 -2.61457810E-03  6.87015123E-17  1.04152630E-13  3.31663442E-01 -7.98229448E-02
  5.60017050E-17  1.34273071E-17 -7.09443129E-16  5.17907237E-02  8.96724504E-02
  1.59633957E-16 -2.80166055E-15  2.76121917E-16  2.92734762E-15  1.13978965E-02
 -1.72368137E-15 -2.39555096E-15 -4.38356785E-01 -1.49104297E-15  5.97717837E-16
  2.65990232E-16 -1.12193267E-02  8.49937322E-16 -1.84494465E-15 -1.10311911E-02
  8.33572034E-03 -1.74657997E-17 -2.91599763E-16 -1.24745835E-03 -2.76207263E-15
 -8.11419219E-16 -9.35408149E-16 -5.43165923E-15 -1.83014606E-16  6.55403566E-03
  6.51680759E-16 -1.21289170E-14 -2.01920750E-02 -1.21017632E-02 -1.17446714E-16
  2.56280125E-02  9.12444987E-16  4.11816798E-02  4.27539668E-15  1.94432026E-01
 -4.66084815E-02 -3.22078641E+00 -3.94353609E-16  1.53835832E-15  2.74676463E+00
 -1.43649183E-14 -2.39924115E-13  5.16293078E-02  2.99976787E-02 -9.39794369E-16
  5.18360681E-17  8.60244214E-16  1.32615319E-01 -6.93814340E-03  3.69541632E-02
 -3.43176297E-16  1.39897044E-16 -5.88322579E-03 -1.46851495E-16  3.03938205E-16
 -6.54613347E-17 -1.22326010E-15  2.41894191E-02  7.14449457E-17 -1.25716147E-01
  3.78745296E-15  1.43147018E-16  3.90254578E-16  1.04930354E-04  3.37451467E-16
  2.11163905E-01  2.32464187E-16  1.87651687E-15  3.88644032E-16 -8.44632916E-17
 -2.54510569E-15 -7.32620777E-16 -1.29324327E-15  5.89547625E-15  8.51166495E-03
  4.57039415E-16  2.86317723E-16 -4.40594922E-17  4.85745586E-13  1.84023301E-15
  1.42490375E-02 -4.58815491E-01 -9.55715012E-02  1.13681812E+01  3.03742101E-01
 -5.05655258E-16 -1.68673800E+00 -3.65760270E-13 -1.24324942E-15 -8.51485062E-15
  3.00042689E-15  8.63410245E-02  9.93319296E-15  6.01805216E-01  1.96156569E-16
  5.65530502E-01  2.25747176E-14  4.83067162E-16  2.75240231E-02 -2.55435176E-16
  2.75425916E-15  1.68802208E-16 -6.90550635E-15 -6.71724737E-15 -3.55556668E-17
 -2.97969225E-01 -1.40908019E-17 -5.74928845E-16  3.97221221E-03  2.58420698E-02
  2.88617164E-01 -6.21122410E-02  1.31448042E-16  9.23868344E-16 -1.75854725E-16
  5.58106610E-16 -2.39247367E-15  8.63410245E-02  7.39734437E-03 -1.38470821E-16
  4.33761885E-16 -7.18875131E-15  1.46898751E-15  2.42822325E-01 -1.87310067E-02
  1.65941658E-16  9.57344020E-16  1.59451333E+00 -2.31343422E-15 -3.55212290E-16
  9.25721203E-01 -1.73290456E-01 -7.09045393E-16 -5.83657739E-15  8.24430922E-03
  1.88878568E-17 -1.65109320E-02  2.15778596E-01 -2.76640123E-01 -5.82543637E-16
  4.67576893E-16 -1.32994166E-16 -1.84081073E-16  1.98973869E-16  3.90254578E-16
  6.62915383E-16  1.53796155E-01 -1.19901198E-15 -1.30726851E-02 -5.91179532E-02
  3.43078732E-02 -8.97637869E-16 -6.93814340E-03  2.38788886E-02 -1.07393707E-02
  3.65132856E-02 -3.51285100E-16 -2.47614970E-01  6.19610265E-16 -9.17283609E-16
  3.03165902E-16  1.34390581E-16  1.75979662E-02  5.00960727E-15  7.25500685E-15
 -1.24153305E-01 -7.93147253E-16 -3.59260205E-16 -7.23356761E-17 -1.12638120E-02
  8.70816229E-02  2.03733046E-02  2.03733046E-02  1.70888194E-16 -1.84081073E-16
  7.58186941E-17  1.25053036E-14 -6.45219011E-02 -6.72675914E-16 -2.10816620E-14
 -1.46303509E+00  2.25747176E-14  8.24462764E-02 -7.84811197E-16  3.96364980E-16
 -7.67156936E-02 -1.28677838E+00 -1.92765722E-01  1.91682020E-15  8.23911455E-15
  6.81555032E-03  1.51786668E-14 -1.23805384E-15  6.24205221E-16 -5.33974482E-15
  9.10924845E-17  1.48763392E-02  1.80126515E-14  4.05646965E-16 -1.43093943E-14
  1.08197539E-16  8.24430922E-03 -5.69534663E-16 -1.69125007E-16 -3.29794154E-15
  6.55403566E-03  1.00359708E-01  6.80334720E-02 -1.04515474E-02  3.96364980E-16
  9.62900416E-17 -5.80799201E-16  2.88787322E-01 -2.97969225E-01  1.23065860E-02
 -1.74161880E-01  9.41334862E-16 -1.68604203E-16  6.92058794E-16 -1.08305203E-02
 -7.03003984E+00 -1.80766190E-01  1.80766190E-01 -3.81899233E-02  3.76719490E-15
 -2.85096033E-14  2.57326006E-02 -2.76197911E-02 -2.37237790E-14  2.40201627E-02
 -7.86294043E-17 -1.77532083E-14  7.85662142E-16 -2.14567966E+00  1.25830926E+00
  3.51359458E-15  1.79351207E-01  1.30016128E-14  1.86247842E-14 -2.76207263E-15
 -5.21822629E-16 -1.88422766E-14 -3.65760270E-13  4.99306308E-01  2.98333103E-15
  3.62146146E-16 -3.96894893E+00  3.13419963E-02 -1.50615164E-02 -1.14653843E-01
 -4.75538992E-14  2.75240231E-02 -3.29668219E-01  1.34390581E-16 -8.36389376E-16
  6.75004620E-16  8.17717191E-17 -1.79295835E-01  4.79073564E-16 -6.98160451E-02
  4.16173804E-01  3.02316290E-17 -2.93983166E-16 -8.48856668E-16 -9.16824624E-16
  1.56933916E-14 -2.80778658E-15 -6.82083435E-16 -1.19195986E-01 -5.12255459E-16
  4.15742006E-16 -4.66084815E-02 -2.35867287E-15 -2.30046699E-15 -5.33974482E-15
 -8.20570619E-17 -5.82677515E-01 -4.98901264E-01  2.22998326E-01 -2.85369679E+00
 -1.53316591E-01 -2.85832842E-16  2.36024223E-01 -3.08071570E-04 -3.65345089E-16
 -8.76942312E-03 -1.38178633E-15  8.68651140E-16  3.48171548E-15 -4.90659318E-15
 -3.94029932E-01  2.44669891E+00 -2.86718959E-16 -3.51266795E-16 -5.88908345E-02
  2.35718126E-02  1.39095386E-01 -5.32168410E-02 -3.54144120E-02  2.32464187E-16
  6.10107850E-03  3.83410597E-15 -1.78727342E-14 -1.70461241E-15 -1.43517402E-15
 -2.41212485E-02 -2.29164192E-01 -1.10697828E-15 -9.44687862E-15 -1.26645668E-16
 -1.48625322E-15  3.51278103E-16 -1.47312635E-15  6.68817620E-16 -7.41429894E-16
 -8.77284851E-17 -8.77700030E-15  6.08193148E-15 -8.81001241E-03  1.66237325E-16
 -6.51891782E-15 -4.93671349E-01 -1.21017632E-02 -1.79571972E-15  2.64522655E-16
  4.94642853E-15  3.25086056E-16  1.98440939E-16  5.32168410E-02  1.96630164E-02
  6.33955163E-03 -6.98160451E-02 -3.18330062E-16  2.31192011E-16  8.99619847E-02
  6.26718664E-02 -1.20199864E-15 -1.89952305E-02  3.40785070E-02  1.00255400E-14
  8.72611651E-02 -4.90098484E-15 -1.00466724E-02 -6.51891782E-15 -1.84660112E+00
 -7.90955789E-16 -6.12052870E-18  3.42850432E-15  5.53462996E-16 -3.38410969E-02
  1.93551376E-01  1.43541893E-15 -7.32295974E-16  1.44971561E-14 -5.09993268E-02
  6.68006286E-02  6.63715809E-14 -7.68254098E-04  1.95705000E-16 -8.65194989E-02
 -7.68254098E-04  1.44592729E-15  1.33118776E-02 -2.47238788E-02 -1.90862416E-14
 -4.49230123E-01 -7.29688392E-16  1.82441539E-16  1.23930048E-02  4.44215198E-18
  2.95958737E-15  1.18549546E-01 -1.68001478E-01 -6.27226087E-15 -7.56076479E-03
 -6.97523596E-16  8.26611533E-15  5.24409810E-02 -2.29372304E-01 -3.51206456E-02
 -3.38410969E-02  4.81038352E-15  4.63673347E-02  9.58279930E-03 -2.04961950E-16
  1.12288352E-02 -1.59837999E-16 -4.16173804E-01  3.96207442E-02  6.92058794E-16
 -7.29688392E-16  1.11781009E-14 -9.00507132E-16  3.37456894E-16 -3.60464110E-15
  4.53051554E-14 -6.23123149E-15  1.49022171E-01  1.22053860E-13 -1.32733429E-15
  1.12074766E-03  8.26760050E-16 -1.26759476E-16 -9.21711429E-17  2.56818012E-02
 -6.92667585E-17 -3.58065683E-02 -2.84554775E-16 -1.92525704E-16  7.01484096E-16
 -3.29174549E-16  1.00185094E-15  1.67161614E-15 -2.58635190E-01  2.73316715E-16
 -3.03267942E-15  2.41212485E-02  5.75989884E-15  7.73971283E-16 -8.51869218E-02
  1.00255400E-14  2.94229745E-14  3.75088872E-02 -8.59713494E-02  3.21229770E-16