                  Welcome to Q-Chem
     A Quantum Leap Into The Future Of Chemistry


 Q-Chem 6.2 (devel), Q-Chem, Inc., Pleasanton, CA (2024)

 E. Epifanovsky,  A. T. B. Gilbert,  Xintian Feng,  Joonho Lee,  Yuezhi Mao,  
 N. Mardirossian,  P. Pokhilko,  A. White,  M. Wormit,  M. P. Coons,  
 A. L. Dempwolff,  Zhengting Gan,  D. Hait,  P. R. Horn,  L. D. Jacobson,  
 I. Kaliman,  J. Kussmann,  A. W. Lange,  Ka Un Lao,  D. S. Levine,  Jie Liu,  
 S. C. McKenzie,  A. F. Morrison,  K. D. Nanda,  F. Plasser,  D. R. Rehn,  
 M. L. Vidal,  Zhi-Qiang You,  Ying Zhu,  Huseyin Aksu,  B. Alam,  
 B. Albrecht,  A. Aldossary,  E. Alguire,  J. H. Andersen,  
 J. E. Arias-Martinez,  V. Athavale,  D. Barton,  K. Begam,  A. Behn,  
 N. Bellonzi,  Y. A. Bernard,  E. J. Berquist,  H. Burton,  A. Carreras,  
 K. Carter-Fenk,  Mathew Chow,  Romit Chakraborty,  Chandrima Chakravarty,  
 Junhan Chen,  A. D. Chien,  K. D. Closser,  V. Cofer-Shabica,  L. Cunha,  
 S. Dasgupta,  Jia Deng,  Joseph Dickinson,  M. de Wergifosse,  
 M. Diedenhofen,  Hainam Do,  Wenjie Dou,  S. Ehlert,  Po-Tung Fang,  
 S. Fatehi,  Qingguo Feng,  Jonathan Fetherolf,  T. Friedhoff,  
 Thomas Froitzheim,  Sarai Folkestad,  B. Ganoe,  J. Gayvert,  Qinghui Ge,  
 G. Gidofalvi,  M. Gimferrer,  M. Goldey,  Montgomery Gray,  J. Gomes,  
 C. Gonzalez-Espinoza,  S. Gulania,  A. Gunina,  J. A. Gyamfi,  
 M. W. D. Hanson-Heine,  P. H. P. Harbach,  A. W. Hauser,  M. F. Herbst,  
 M. Hernandez Vera,  M. Hodecker,  Z. C. Holden,  S. Houck,  Xunkun Huang,  
 Kerwin Hui,  B. C. Huynh,  K. Ikeda,  M. Ivanov,  Nayanthara K. Jayadev,  
 Hyunjun Ji,  Zuxin Jin,  Hanjie Jiang,  Subrata Jana,  B. Kaduk,  
 S. Kaehler,  R. Kang,  K. Khistyaev,  Jaehoon Kim,  Yongbin Kim,  
 P. Klunzinger,  Z. Koczor-Benda,  Joong Hoon Koh,  D. Kosenkov,  
 Saikiran Kotaru,  L. Koulias,  T. Kowalczyk,  C. M. Krauter,  K. Kue,  
 A. Kunitsa,  T. Kus,  A. Landau,  K. V. Lawler,  D. Lefrancois,  S. Lehtola,  
 Rain Li,  Shaozhi Li,  Tao E. Li,  Yi-Pei Li,  Jiashu Liang,  M. Liebenthal,  
 Hung-Hsuan Lin,  You-Sheng Lin,  Fenglai Liu,  Kuan-Yu Liu,  Xiao Liu,  
 M. Loipersberger,  A. Luenser,  C. Malbon,  Aniket Mandal,  Manisha,  
 A. Manjanath,  P. Manohar,  E. Mansoor,  S. F. Manzer,  Shan-Ping Mao,  
 A. V. Marenich,  T. Markovich,  S. Mason,  F. Matz,  S. A. Maurer,  
 Samuel May,  Alexandra McIsaac,  P. F. McLaughlin,  M. F. S. J. Menger,  
 J.-M. Mewes,  S. A. Mewes,  P. Morgante,  Mohammad Mostafanejad,  
 Madhubani Mukherjee,  J. W. Mullinax,  Quyen Nguyen,  Avik Kumar Ojha,  
 K. J. Oosterbaan,  Eno Paenurk,  Xiaoliang Pan,  G. Paran,  V. Parravicini,  
 Alexander C. Paul,  Suranjan K. Paul,  F. Pavosevic,  Zheng Pei,  S. Prager,  
 E. I. Proynov,  E. Ramos,  B. Rana,  A. E. Rask,  A. Rettig,  R. M. Richard,  
 F. Rob,  E. Rossomme,  T. Scheele,  M. Scheurer,  M. Schneider,  
 P. E. Schneider,  Tim K. Schramm,  N. Sergueev,  S. M. Sharada,  
 Hengyuan Shen,  W. Skomorowski,  D. W. Small,  C. J. Stein,  
 Alistair J. Sterling,  Yingli Su,  Yu-Chuan Su,  E. J. Sundstrom,  
 J. Talbot,  Zhen Tao,  J. Thirman,  Hung-Yi Tsai,  T. Tsuchimochi,  
 N. M. Tubman,  C. Utku,  S. P. Veccham,  O. Vydrov,  Rahel Weiss,  
 J. Wenzel,  Jonathan Wong,  J. Witte,  H. Wu,  Yanze Wu,  A. Yamada,  
 Chou-Hsun Yang,  Kun Yao,  S. Yeganeh,  S. R. Yost,  Qi Yu,  A. Zech,  
 F. Zeller,  Chongxiao Zhao,  Igor Ying Zhang,  Xing Zhang,  Yu Zhang,  
 D. Zuev,  A. Aspuru-Guzik,  A. T. Bell,  N. A. Besley,  K. B. Bravaya,  
 B. R. Brooks,  D. Casanova,  Jeng-Da Chai,  Hsing-Ta Chen,  S. Coriani,  
 C. J. Cramer,  A. E. DePrince, III,  R. A. DiStasio Jr.,  A. Dreuw,  
 B. D. Dunietz,  T. R. Furlani,  W. A. Goddard III,  S. Grimme,  
 S. Hammes-Schiffer,  T. Head-Gordon,  W. J. Hehre,  Chao-Ping Hsu,  
 T.-C. Jagau,  Yousung Jung,  A. Klamt,  Jing Kong,  D. S. Lambrecht,  
 Xiangyuan Li,  WanZhen Liang,  N. J. Mayhall,  C. W. McCurdy,  J. B. Neaton,  
 T. Neudecker,  C. Ochsenfeld,  J. A. Parkhill,  R. Peverati,  
 V. A. Rassolov,  Haisheng Ren,  Yihan Shao,  L. V. Slipchenko,  
 R. P. Steele,  J. E. Subotnik,  A. J. W. Thom,  A. Tkatchenko,  
 D. G. Truhlar,  T. Van Voorhis,  Fan Wang,  T. A. Wesolowski,  K. B. Whaley,  
 H. L. Woodcock III,  P. M. Zimmerman,  S. Faraji,  P. M. W. Gill,  
 M. Head-Gordon,  J. M. Herbert,  A. I. Krylov

 Contributors to earlier versions of Q-Chem not listed above: 
 R. D. Adamson,  B. Austin,  R. Baer,  J. Baker,  G. J. O. Beran,  
 K. Brandhorst,  S. T. Brown,  E. F. C. Byrd,  Arup K. Chakraborty,  
 G. K. L. Chan,  Chun-Min Chang,  Yunqing Chen,  C.-L. Cheng,  
 Siu Hung Chien,  D. M. Chipman,  D. L. Crittenden,  H. Dachsel,  
 R. J. Doerksen,  A. D. Dutoi,  R. G. Edgar,  J. Fosso-Tande,  
 L. Fusti-Molnar,  D. Ghosh,  A. Ghysels,  A. Golubeva-Zadorozhnaya,  
 J. Gonthier,  M. S. Gordon,  S. R. Gwaltney,  G. Hawkins,  J. E. Herr,  
 A. Heyden,  S. Hirata,  E. G. Hohenstein,  G. Kedziora,  F. J. Keil,  
 C. Kelley,  Jihan Kim,  R. A. King,  R. Z. Khaliullin,  P. P. Korambath,  
 W. Kurlancheek,  A. Laurent,  A. M. Lee,  M. S. Lee,  S. V. Levchenko,  
 Ching Yeh Lin,  D. Liotard,  E. Livshits,  R. C. Lochan,  I. Lotan,  
 L. A. Martinez-Martinez,  P. E. Maslen,  N. Nair,  D. P. O'Neill,  
 D. Neuhauser,  E. Neuscamman,  C. M. Oana,  R. Olivares-Amaya,  R. Olson,  
 T. M. Perrine,  B. Peters,  P. A. Pieniazek,  A. Prociuk,  Y. M. Rhee,  
 J. Ritchie,  M. A. Rohrdanz,  E. Rosta,  N. J. Russ,  H. F. Schaefer III,  
 M. W. Schmidt,  N. E. Schultz,  S. Sharma,  N. Shenvi,  C. D. Sherrill,  
 A. C. Simmonett,  A. Sodt,  T. Stein,  D. Stuck,  K. S. Thanthiriwatte,  
 V. Vanovschi,  L. Vogt,  Tao Wang,  A. Warshel,  M. A. Watson,  
 C. F. Williams,  Q. Wu,  X. Xu,  Jun Yang,  W. Zhang,  Yan Zhao

   Please cite Q-Chem as follows:
  "Software for the frontiers of quantum chemistry:
   An overview of developments in the Q-Chem 5 package"
   J. Chem. Phys. 155, 084801 (2021)
   https://doi.org/10.1063/5.0055522 (open access)

 Q-Chem 6.2.0 for Intel X86 EM64T Linux

 Parts of Q-Chem use Armadillo 9.900.5 (Nocturnal Misbehaviour).
 http://arma.sourceforge.net/

 Q-Chem begins on Thu May 30 00:01:58 2024  

 Host: 
0

     Scratch files written to /data/scratch/cf3h_h2o_eda2_op1_wB97X-V_tzvppd20240530000154//
 Processing $rem in /home/ymao/my_qchem/qchem_ymao_quick_fix/config/preferences:
 Processing $rem in /home/ymao/.qchemrc:

 Q-Chem warning in module libgen/rem_setup.C, line 3380:

 Neither GIA nor STOLL is specified by user. Use STOLL as the default


 Checking the input file for inconsistencies... 	...done.

--------------------------------------------------------------
User input:
--------------------------------------------------------------
$molecule
0 1
--
0 1
O    2.77773    -0.01318   0.00000   
H    3.35837    -0.00196   -0.76769  
H    3.35837    -0.00196   0.76769   
--
0 1
H    0.59878    -0.04551   0.00000   
C    -0.49895   -0.00740   0.00000   
F    -1.02270   -1.24292   0.00000   
F    -0.95441   0.63633    1.08615   
F    -0.95441   0.63633    -1.08615  
$end

$rem
JOBTYPE  EDA
EDA2  1
METHOD  WB97X-V
BASIS  DEF2-TZVPPD
SYMMETRY  FALSE
SYM_IGNORE  TRUE
MEM_TOTAL  8000
MEM_STATIC  2000
BASIS_LIN_DEP_THRESH  6
THRESH  14
SCF_CONVERGENCE  8
GEN_SCFMAN  TRUE
MAXSCF  200
FD_MAT_VEC_PROD  FALSE
XC_GRID  000099000590
NL_GRID  1
SCF_GUESS  FRAGMO
FRZ_ORTHO_DECOMP  -1
EDA_CLS_DISP  TRUE
EDA_POL_A  TRUE
EDA_VCT_A  TRUE
EDA_SAVE_COVP  TRUE
EDA_COVP_THRESH  1000
MAKE_CUBE_FILES  TRUE
PLOTS  TRUE
$end

$plots
 grid_points 100 100 100
$end
--------------------------------------------------------------
 ----------------------------------------------------------------
             Standard Nuclear Orientation (Angstroms)
    I     Atom           X                Y                Z
 ----------------------------------------------------------------
    1      O       2.7777300000    -0.0131800000     0.0000000000
    2      H       3.3583700000    -0.0019600000    -0.7676900000
    3      H       3.3583700000    -0.0019600000     0.7676900000
    4      H       0.5987800000    -0.0455100000     0.0000000000
    5      C      -0.4989500000    -0.0074000000     0.0000000000
    6      F      -1.0227000000    -1.2429200000     0.0000000000
    7      F      -0.9544100000     0.6363300000     1.0861500000
    8      F      -0.9544100000     0.6363300000    -1.0861500000
 ----------------------------------------------------------------
 Nuclear Repulsion Energy =         189.00961396 hartrees
 There are       22 alpha and       22 beta electrons
 Requested basis set is def2-TZVPPD
 There are 90 shells and 248 basis functions

 Total QAlloc Memory Limit   8000 MB
 Mega-Array Size      1956 MB
 MEM_STATIC part      2000 MB


                       Distance Matrix (Angstroms)
             O (  1)   H (  2)   H (  3)   H (  4)   C (  5)   F (  6)
   H (  2)  0.962609
   H (  3)  0.962609  1.535380
   H (  4)  2.179190  2.864713  2.864713
   C (  5)  3.276685  3.932975  3.932975  1.098391
   F (  6)  3.994437  4.617695  4.617695  2.015686  1.341948
   F (  7)  3.940870  4.737532  4.371373  2.014206  1.342220  2.171627
   F (  8)  3.940870  4.371373  4.737532  2.014206  1.342220  2.171627
             F (  7)
   F (  8)  2.172300
 
 A cutoff of  1.0D-14 yielded   3771 shell pairs
 There are     28649 function pairs (     36625 Cartesian)
 Smallest overlap matrix eigenvalue = 1.29E-05

 Scale SEOQF with 1.000000e-01/1.000000e-01/1.000000e-01

 Standard Electronic Orientation quadrupole field applied
 Nucleus-field energy     =     0.0000000031 hartrees

 -----------------------------------------------------------------------
  General SCF calculation program by
  Eric Jon Sundstrom, Paul Horn, Yuezhi Mao, Dmitri Zuev, Alec White,
  David Stuck, Shaama M.S., Shane Yost, Joonho Lee, David Small,
  Daniel Levine, Susi Lehtola, Hugh Burton, Evgeny Epifanovsky,
  Bang C. Huynh
 -----------------------------------------------------------------------
================================================================
                 ALMO-EDA with the EDA2 driver                  
================================================================
 The second-generation ALMO-EDA (for DFT):                      
 P. R. Horn, Y. Mao and M. Head-Gordon, PCCP, 18, 23067 (2016)  
 Y. Mao et al. Annu. Rev. Phys. Chem. 72, 641 (2021)            
 Decomposition of the frozen energy:                            
 P. R. Horn, Y. Mao and M. Head-Gordon, JCP, 144, 114107 (2016) 
 FERF model for polarization:                                   
 P. R. Horn and M. Head-Gordon, JCP, 143, 114111 (2015)         
================================================================
 Using eda2 option set 1
 Option set summary: Frozen orbital wavefunction, initial wavefunction decomposition, and nDQ polarization.
--------------------------------
Printing EDA Options
--------------------------------
eda_child_super_basis      0
fragmo_guess_mode          0
child_mp                   1
child_mp_orders            232
cls_elec                   1
cls_disp                   1
scfmi_mode                 1
scfmi_occs                 0
scfmi_virts                0
frz_relax                  0
frz_relax_method           0
dc_pen_start               0
dc_pen_conv                0
dc_pen_increment           0
dc_pen_steps               0
dc_pen_thresh_factor       0
dc_pen_pre_newton_thresh   0
frz_ortho_decomp           0
frz_ortho_decomp_conv      6
plot_mo_ortho_frz          0
frgm_method                2
scfmi_freeze_ss            0
separate_rehyb             0
plot_diff_den              0
eda_nocv                   0
eda_vct_relax              1
disp_free_x                0
disp_free_c                0
eda_bsse                   0
eda_pct_a                  0
eda_covp                   0
eda_pol_a                  1
eda_vct_a                  1
print_level                1
--------------------------------
 Attempting to make child job directory: /data/scratch/cf3h_h2o_eda2_op1_wB97X-V_tzvppd20240530000154//Frg1/
 Attempting to make child job directory: /data/scratch/cf3h_h2o_eda2_op1_wB97X-V_tzvppd20240530000154//Frg2/
 Creating input file /data/scratch/cf3h_h2o_eda2_op1_wB97X-V_tzvppd20240530000154/Frg1.input
 using default PutDataFrgm: nothing
 calling putenv with: QCSCRATCH=/data/scratch/cf3h_h2o_eda2_op1_wB97X-V_tzvppd20240530000154/ 
 Spawning Job For Fragment 0
 Done Job For Fragment 0
 calling putenv with: QCSCRATCH=/data/scratch 
 calling putenv with: QCTHREADS=16 
 Creating input file /data/scratch/cf3h_h2o_eda2_op1_wB97X-V_tzvppd20240530000154/Frg2.input
 using default PutDataFrgm: nothing
 calling putenv with: QCSCRATCH=/data/scratch/cf3h_h2o_eda2_op1_wB97X-V_tzvppd20240530000154/ 
 Spawning Job For Fragment 1
 Done Job For Fragment 1
 calling putenv with: QCSCRATCH=/data/scratch 
 calling putenv with: QCTHREADS=16 
Doing General SCFMI
 Exchange:     0.1670 Hartree-Fock + 1.0000 wB97X-V + LR-HF
 Correlation:  1.0000 wB97X-V
 Using Euler-Maclaurin-Lebedev (99,590) quadrature formula
 Nonlocal Correlation:  VV10 with C = 0.0100 and b = 6.00 and scale = 1.00000
 Grid used for NLC:  SG-1 standard quadrature
performing fock build before subrot guess so that all methods have access
Printing subrot_rss_gen Method Specification:
Occupied Subspace Method is 0
Virtual Subspace Method is 0
Energy of the unrelaxed supersystem initial determinant -414.725190056943
write pseudocanon occs and virts to disk
write pseudocanon orbital energies to disk
 Exchange:     0.1670 Hartree-Fock + 1.0000 wB97X-V + LR-HF
 Correlation:  1.0000 wB97X-V
 Using Euler-Maclaurin-Lebedev (99,590) quadrature formula
 Nonlocal Correlation:  VV10 with C = 0.0100 and b = 6.00 and scale = 1.00000
 Grid used for NLC:  SG-1 standard quadrature
 Long-range K will be added via erf
 Coulomb attenuation parameter = 0.3 bohr**(-1)
 Nonlocal correlation = 0.182162698637
 Hartree-Fock
Doing General SCFMI
 Exchange:     0.1670 Hartree-Fock + 1.0000 wB97X-V + LR-HF
 Correlation:  1.0000 wB97X-V
 Using Euler-Maclaurin-Lebedev (99,590) quadrature formula
 Nonlocal Correlation:  VV10 with C = 0.0100 and b = 6.00 and scale = 1.00000
 Grid used for NLC:  SG-1 standard quadrature
performing fock build at end of subrot_r(subrot) constructor so that all methods have access
<S^2> of initial wavefunction before polarization iterations 0.0000000000
Beginning iterations for the determination of the polarized wavefunction
Energy prior to optimization (guess energy) = -414.725190056943
Begin Timing: Total SCF Calculation
begin iterations for algorithm: DIIS         
the SCF tolerance is set to 1.00e-08
    1    -414.7251900569      1.97e-04     00000 
    2    -414.7261907463      5.86e-05     00000 
    3    -414.7262630820      4.02e-05     00000 
    4    -414.7262790026      1.21e-05     00000 
    5    -414.7262821215      3.15e-06     00000 
    6    -414.7262825593      8.87e-07     00000 
    7    -414.7262825833      4.84e-07     00000 
    8    -414.7262825862      1.17e-07     00000 
    9    -414.7262825865      2.88e-08     00000 
   10    -414.7262825865      1.05e-08     00000 
   11    -414.7262825865      6.39e-09     00000 Convergence criterion met
write pseudocanon occs and virts to disk
write pseudocanon orbital energies to disk
Timing for Total SCF: 25.00s (wall), 401.85s (cpu)
<S^2> of polarized wavefunction after polarization iterations 0.0000000000
Doing General SCFMI
 Exchange:     0.1670 Hartree-Fock + 1.0000 wB97X-V + LR-HF
 Correlation:  1.0000 wB97X-V
 Using Euler-Maclaurin-Lebedev (99,590) quadrature formula
 Nonlocal Correlation:  VV10 with C = 0.0100 and b = 6.00 and scale = 1.00000
 Grid used for NLC:  SG-1 standard quadrature
performing fock build at end of subrot_r(subrot) constructor so that all methods have access
GDM subspace size: 20
    1       0.0008065442      5.68e-03     00000 Preconditoned Steepest Descent
    2       0.0072508759      1.70e-02     00000 LineSearch Step
    3       0.0000000003      3.42e-06     00000 BFGS Step
    4       0.0000000000      1.26e-06     00000 BFGS Step
    5       0.0000000002      2.72e-06     00000 LineSearch Step
    6       0.0000000000      3.90e-07     00000 BFGS Step
    7       0.0000000000      1.93e-08     00000 BFGS Step
GDM subspace size: 20
    1       0.0008481016      1.74e-03     00000 Preconditoned Steepest Descent
    2       0.0076222316      5.21e-03     00000 LineSearch Step
    3       0.0000000005      1.28e-06     00000 BFGS Step
    4       0.0000000001      4.27e-07     00000 BFGS Step
    5       0.0000000003      9.73e-07     00000 LineSearch Step
    6       0.0000000000      1.24e-07     00000 BFGS Step
    7       0.0000000000      5.05e-09     00000 BFGS Step
=========Fragment P Connection POL Analysis Result=========
P Connection Polarization Energy (kJ/mol)  : -2.868436
P Connection On-Fragment Charge Shift (me-): +1.539977
First Principle Polarization Energy (kJ/mol)  : -2.868436
First Principle On-Fragment Charge Shift (me-): +1.539977
___________________________________________________________
=========Fragment-wise P Connection POL Analysis=========
[Fragment 1]
E_1 (kJ/mol): -1.590162, Q_1 (me-): +0.782023
[Fragment 2]
E_2 (kJ/mol): -1.278274, Q_2 (me-): +0.757955
_________________________________________________________
==============================================================
           Fragment P Connection POL COVP Analysis            
==============================================================
Using COVP significance threshold 1.000 (kJ/mol)
--------------------------------------------------------------
 D  A  dE (kJ/mol)  dE %    dQ (me-)  dQ %    idx(D)  idx(A)
 1  1   -1.1917     41.54   0.5945    38.60     1       2   
______________________________________________________________
relaxing scfmi constraint to allow all rotations in the entire AO span
Doing General SCFMI
 Exchange:     0.1670 Hartree-Fock + 1.0000 wB97X-V + LR-HF
 Correlation:  1.0000 wB97X-V
 Using Euler-Maclaurin-Lebedev (99,590) quadrature formula
 Nonlocal Correlation:  VV10 with C = 0.0100 and b = 6.00 and scale = 1.00000
 Grid used for NLC:  SG-1 standard quadrature
performing fock build at end of subrot_r(subrot) constructor so that all methods have access
<S^2> of polarized wavefunction before ct-allowed iterations 0.0000000000
Beginning iterations for the determination of the CT-Allowed wavefunction
Energy prior to optimization (guess energy) = -414.726282586517
Begin Timing: Total SCF Calculation
begin iterations for algorithm: DIIS         
the SCF tolerance is set to 1.00e-08
    1    -414.7262825865      1.82e-04     00000 
    2    -414.7274170224      2.58e-05     00000 
    3    -414.7274592397      7.67e-06     00000 
    4    -414.7274604583      5.51e-06     00000 
    5    -414.7274610896      3.29e-07     00000 
    6    -414.7274610944      1.03e-07     00000 
    7    -414.7274610948      2.76e-08     00000 
    8    -414.7274610948      1.01e-08     00000 
    9    -414.7274610948      4.47e-09     00000 Convergence criterion met
write pseudocanon occs and virts to disk
write pseudocanon orbital energies to disk
Timing for Total SCF: 24.00s (wall), 334.91s (cpu)
<S^2> of ct_allowed wavefunction after ct-allowed iterations 0.0000000000
GDM subspace size: 20
    1       0.0012698551      1.43e-03     00000 Preconditoned Steepest Descent
    2       0.0114082332      4.28e-03     00000 LineSearch Step
    3       0.0000000011      1.31e-06     00000 BFGS Step
    4       0.0000000002      5.21e-07     00000 BFGS Step
    5       0.0000000007      1.07e-06     00000 LineSearch Step
    6       0.0000000000      1.71e-07     00000 BFGS Step
    7       0.0000000000      1.01e-08     00000 BFGS Step

==============Non-Perturbative CT Analysis Result===============
Non-Perturbative CT Energy (kJ/mol)   : -3.094173
Non-Perturbative Charge Transfer (me-): +1.269855
First Principle CT Energy (kJ/mol)    : -3.094173
First Principle Charge Transfer (me-) : +1.269855
_______________________________________________________________
========Fragment-wise Non-Perturbative CT Analysis=======
---Fragment-wise CT energies (row to col, kJ/mol)
			1			2
	1   -0.011159   -2.662913
	2   -0.400949   -0.019153
---Fragment-wise charge transfer (row to col, me-)
			1			2
	1   -0.194086    1.273656
	2    0.208559   -0.018274
_________________________________________________________
==============================================================
              Non-Perturbative CT COVP Analysis               
==============================================================
Using COVP significance threshold 1.000 (kJ/mol)
--------------------------------------------------------------
 D  A  dE (kJ/mol)  dE %    dQ (me-)  dQ %    idx(D)  idx(A)
 1  2   -2.4676     79.75   1.1853    93.34     3       4   
______________________________________________________________
Done with restricted VCTA
Beginning cube_generation (with a 'new' $plots section):
The cube files of the following orbitals are generated: 
 1 2 3 4
Grid information in Angstroms:
 x:        100  min =  -4.022700 max =   6.358370
 y:        100  min =  -4.242920 max =   3.636330
 z:        100  min =  -4.086150 max =   4.086150
 Created directory /data/scratch/cf3h_h2o_eda2_op1_wB97X-V_tzvppd20240530000154/plots

================================
        Results of EDA2         
================================
Basic EDA Quantities
--------------------
Fragment Energies (Ha):
1    -76.4370820962
2   -338.2846913070
--------------------
  E_prp (kJ/mol) = 0.0000
  E_frz (kJ/mol) = -8.9705
  E_pol (kJ/mol) = -2.8685
  E_vct (kJ/mol) = -3.0942
  E_int (kJ/mol) = -14.9332
--------------------


Decomposition of frozen interaction energy
--------------------
  --------------------
  Classical Frozen Decomposition:
  --------------------
     E_cls_elec  (CLS ELEC)  (kJ/mol) = -21.6106
     E_mod_pauli (MOD PAULI) (kJ/mol) = 17.9707 (FRZ - CLS ELEC - CLS DISP)
     E_cls_disp  (CLS DISP)  (kJ/mol) = -5.3306
  --------------------
--------------------

Simplified EDA Summary (kJ/mol)
--------------------
 PREPARATION      0.0000
 FROZEN           -8.9705 (ELEC + PAULI + DISP)
[ELEC + PAULI = -3.6400, DISP = -5.3306]
 POLARIZATION    -2.8685
 CHARGE TRANSFER -3.0942
 TOTAL           -14.9332     (PRP + FRZ + POL + CT)
--------------------
 
 --------------------------------------------------------------
 
                    Orbital Energies (a.u.)
 --------------------------------------------------------------
 
 Alpha MOs
 -- Occupied --
-24.7856 -24.7856 -24.7855 -19.2436 -10.5036  -1.4375  -1.3483  -1.3481
 -1.1683  -0.8348  -0.7144  -0.6999  -0.6998  -0.6724  -0.5779  -0.5778
 -0.5420  -0.5400  -0.5398  -0.5185  -0.4849  -0.4554
 -- Virtual --
  0.0393   0.0822   0.0823   0.0968   0.1183   0.1207   0.1340   0.1611
  0.1617   0.1703   0.1717   0.1911   0.2115   0.2273   0.2331   0.2423
  0.2425   0.2500   0.2551   0.2573   0.2961   0.2969   0.3179   0.3196
  0.3516   0.3711   0.3733   0.3766   0.3865   0.3908   0.3929   0.3979
  0.4125   0.4134   0.4518   0.4626   0.4630   0.5245   0.5274   0.5418
  0.5609   0.5694   0.5705   0.6100   0.6286   0.6455   0.6802   0.6816
  0.7072   0.7251   0.7270   0.7292   0.7351   0.7561   0.7693   0.7845
  0.8015   0.8453   0.8528   0.8671   0.8840   0.8858   0.8954   0.9089
  0.9276   0.9932   1.0155   1.0579   1.0780   1.0911   1.0955   1.1127
  1.1239   1.1483   1.1517   1.2042   1.2173   1.2601   1.2737   1.3040
  1.3182   1.3193   1.3195   1.3581   1.3601   1.3730   1.3968   1.4212
  1.4509   1.4588   1.4798   1.4928   1.5031   1.7041   1.8802   1.9592
  1.9727   2.1536   2.1787   2.1792   2.1901   2.2090   2.2516   2.2730
  2.3229   2.3305   2.3525   2.4507   2.4632   2.5279   2.5449   2.6085
  2.6509   2.6594   2.6795   2.7784   2.8655   2.9087   2.9246   3.0037
  3.0067   3.0257   3.2393   3.2472   3.2917   3.2939   3.3237   3.3258
  3.3558   3.3766   3.3904   3.4232   3.4621   3.4723   3.4793   3.5153
  3.5346   3.5835   3.5912   3.6630   3.6808   3.6826   3.7178   3.8930
  3.9245   3.9271   3.9621   3.9652   3.9828   4.0994   4.1119   4.1433
  4.1530   4.1806   4.1929   4.2195   4.2361   4.2830   4.2915   4.2980
  4.3899   4.4259   4.7848   4.7849   4.8740   4.8742   5.0165   5.2344
  5.2442   5.3797   5.4883   5.4918   5.6335   5.6857   6.2723   6.5334
  6.5644   6.6424   6.6968   6.8491   6.8647   6.9459   6.9537   6.9539
  6.9628   6.9629   6.9632   6.9892   7.0156   7.0156   7.0573   7.1278
  7.1294   7.1997   7.2637   7.2641   7.3202   7.5009   7.5604   7.5665
  7.5673   7.6421   7.6669   7.7182   7.7182   7.8774   8.5549   8.5728
  8.5767   8.6785   8.6836   8.7455   8.8481   8.8793   8.8807   9.0175
  9.2046   9.2074   9.2837   9.4532   9.4541  23.2883  44.0298  57.3635
 57.3687  57.4334
 --------------------------------------------------------------
 
          Ground-State Mulliken Net Atomic Charges

     Atom                 Charge (a.u.)
  ----------------------------------------
      1 O                    -0.349835
      2 H                     0.171965
      3 H                     0.171965
      4 H                    -0.073704
      5 C                     0.671945
      6 F                    -0.196817
      7 F                    -0.197759
      8 F                    -0.197759
  ----------------------------------------
  Sum of atomic charges =     0.000000

 -----------------------------------------------------------------
                    Cartesian Multipole Moments
 -----------------------------------------------------------------
    Charge (ESU x 10^10)
                -0.0000
    Dipole Moment (Debye)
         X       4.0967      Y      -0.0259      Z       0.0000
       Tot       4.0967
    Quadrupole Moments (Debye-Ang)
        XX     -16.1724     XY       0.0376     YY     -30.3302
        XZ      -0.0000     YZ      -0.0000     ZZ     -26.9328
    Octopole Moments (Debye-Ang^2)
       XXX      49.0920    XXY       0.4484    XYY      -3.4386
       YYY       1.2317    XXZ       0.0000    XYZ       0.0000
       YYZ      -0.0000    XZZ       7.5240    YZZ      -1.2868
       ZZZ       0.0000
    Hexadecapole Moments (Debye-Ang^3)
      XXXX    -230.2301   XXXY       0.7261   XXYY     -99.7577
      XYYY      -0.7672   YYYY     -94.2046   XXXZ      -0.0000
      XXYZ      -0.0000   XYYZ      -0.0000   YYYZ      -0.0000
      XXZZ     -63.9577   XYZZ       0.6080   YYZZ     -31.5661
      XZZZ       0.0000   YZZZ      -0.0000   ZZZZ     -93.2582
 -----------------------------------------------------------------
 Total job time:  176.49s(wall), 1443.36s(cpu) 
 Thu May 30 00:04:55 2024

        *************************************************************
        *                                                           *
        *  Thank you very much for using Q-Chem.  Have a nice day.  *
        *                                                           *
        *************************************************************


