
Running Job 1 of 1 Me3SiH_ICN_eda2_op1_wB97X-V_tzvppd.in
qchem Me3SiH_ICN_eda2_op1_wB97X-V_tzvppd.in_186715.0 /data/scratch/Me3SiH_ICN_eda2_op1_wB97X-V_tzvppd20240529234900/ 1
/opt/qchem/6.1/exe/qcprog.exe_s Me3SiH_ICN_eda2_op1_wB97X-V_tzvppd.in_186715.0 /data/scratch/Me3SiH_ICN_eda2_op1_wB97X-V_tzvppd20240529234900/
                  Welcome to Q-Chem
     A Quantum Leap Into The Future Of Chemistry


 Q-Chem 6.1, Q-Chem, Inc., Pleasanton, CA (2023)

 E. Epifanovsky,  A. T. B. Gilbert,  Xintian Feng,  Joonho Lee,  Yuezhi Mao,  
 N. Mardirossian,  P. Pokhilko,  A. White,  M. Wormit,  M. P. Coons,  
 A. L. Dempwolff,  Zhengting Gan,  D. Hait,  P. R. Horn,  L. D. Jacobson,  
 I. Kaliman,  J. Kussmann,  A. W. Lange,  Ka Un Lao,  D. S. Levine,  Jie Liu,  
 S. C. McKenzie,  A. F. Morrison,  K. D. Nanda,  F. Plasser,  D. R. Rehn,  
 M. L. Vidal,  Zhi-Qiang You,  Ying Zhu,  B. Alam,  B. Albrecht,  
 A. Aldossary,  E. Alguire,  J. H. Andersen,  V. Athavale,  D. Barton,  
 K. Begam,  A. Behn,  N. Bellonzi,  Y. A. Bernard,  E. J. Berquist,  
 H. Burton,  A. Carreras,  K. Carter-Fenk,  Mathew Chow,  Romit Chakraborty,  
 Chandrima Chakravarty,  Junhan Chen,  A. D. Chien,  K. D. Closser,  
 V. Cofer-Shabica,  L. Cunha,  S. Dasgupta,  Jia Deng,  M. de Wergifosse,  
 M. Diedenhofen,  Hainam Do,  S. Ehlert,  Po-Tung Fang,  S. Fatehi,  
 Qingguo Feng,  T. Friedhoff,  Thomas Froitzheim,  B. Ganoe,  J. Gayvert,  
 Qinghui Ge,  G. Gidofalvi,  M. Gimferrer,  M. Goldey,  Montgomery Gray,  
 J. Gomes,  C. Gonzalez-Espinoza,  S. Gulania,  A. Gunina,  J. A. Gyamfi,  
 M. W. D. Hanson-Heine,  P. H. P. Harbach,  A. W. Hauser,  M. F. Herbst,  
 M. Hernandez Vera,  M. Hodecker,  Z. C. Holden,  S. Houck,  Xunkun Huang,  
 Kerwin Hui,  B. C. Huynh,  K. Ikeda,  M. Ivanov,  Hyunjun Ji,  Zuxin Jin,  
 Hanjie Jiang,  Subrata Jana,  B. Kaduk,  S. Kaehler,  R. Kang,  
 K. Khistyaev,  Jaehoon Kim,  Yongbin Kim,  P. Klunzinger,  Z. Koczor-Benda,  
 Joong Hoon Koh,  D. Kosenkov,  Saikiran Kotaru,  L. Koulias,  T. Kowalczyk,  
 C. M. Krauter,  K. Kue,  A. Kunitsa,  T. Kus,  A. Landau,  K. V. Lawler,  
 D. Lefrancois,  S. Lehtola,  Rain Li,  Shaozhi Li,  Yi-Pei Li,  
 Jiashu Liang,  M. Liebenthal,  Hung-Hsuan Lin,  You-Sheng Lin,  Fenglai Liu,  
 Kuan-Yu Liu,  Xiao Liu,  M. Loipersberger,  A. Luenser,  C. Malbon,  
 A. Manjanath,  P. Manohar,  E. Mansoor,  S. F. Manzer,  Shan-Ping Mao,  
 A. V. Marenich,  T. Markovich,  S. Mason,  F. Matz,  S. A. Maurer,  
 P. F. McLaughlin,  M. F. S. J. Menger,  J.-M. Mewes,  S. A. Mewes,  
 P. Morgante,  Mohammad Mostafanejad,  J. W. Mullinax,  K. J. Oosterbaan,  
 G. Paran,  V. Parravicini,  Alexander C. Paul,  Suranjan K. Paul,  
 F. Pavosevic,  Zheng Pei,  S. Prager,  E. I. Proynov,  E. Ramos,  B. Rana,  
 A. E. Rask,  A. Rettig,  R. M. Richard,  F. Rob,  E. Rossomme,  T. Scheele,  
 M. Scheurer,  M. Schneider,  P. E. Schneider,  Tim K. Schramm,  N. Sergueev,  
 S. M. Sharada,  M. Sharma,  Hengyuan Shen,  W. Skomorowski,  D. W. Small,  
 C. J. Stein,  Alistair J. Sterling,  Yingli Su,  Yu-Chuan Su,  
 E. J. Sundstrom,  J. Talbot,  Zhen Tao,  J. Thirman,  Hung-Yi Tsai,  
 T. Tsuchimochi,  N. M. Tubman,  C. Utku,  S. P. Veccham,  O. Vydrov,  
 J. Wenzel,  Jonathan Wong,  J. Witte,  A. Yamada,  Chou-Hsun Yang,  Kun Yao,  
 S. Yeganeh,  S. R. Yost,  A. Zech,  F. Zeller,  Igor Ying Zhang,  
 Xing Zhang,  Yu Zhang,  D. Zuev,  A. Aspuru-Guzik,  A. T. Bell,  
 N. A. Besley,  K. B. Bravaya,  B. R. Brooks,  D. Casanova,  Jeng-Da Chai,  
 Hsing-Ta Chen,  S. Coriani,  C. J. Cramer,  A. E. DePrince, III,  
 R. A. DiStasio Jr.,  A. Dreuw,  B. D. Dunietz,  T. R. Furlani,  
 W. A. Goddard III,  S. Grimme,  S. Hammes-Schiffer,  T. Head-Gordon,  
 W. J. Hehre,  Chao-Ping Hsu,  T.-C. Jagau,  Yousung Jung,  A. Klamt,  
 Jing Kong,  D. S. Lambrecht,  Xiangyuan Li,  WanZhen Liang,  N. J. Mayhall,  
 C. W. McCurdy,  J. B. Neaton,  T. Neudecker,  C. Ochsenfeld,  
 J. A. Parkhill,  R. Peverati,  V. A. Rassolov,  Haisheng Ren,  Yihan Shao,  
 L. V. Slipchenko,  R. P. Steele,  J. E. Subotnik,  A. J. W. Thom,  
 A. Tkatchenko,  D. G. Truhlar,  T. Van Voorhis,  Fan Wang,  
 T. A. Wesolowski,  K. B. Whaley,  H. L. Woodcock III,  P. M. Zimmerman,  
 S. Faraji,  P. M. W. Gill,  M. Head-Gordon,  J. M. Herbert,  A. I. Krylov

 Contributors to earlier versions of Q-Chem not listed above: 
 R. D. Adamson,  B. Austin,  R. Baer,  J. Baker,  G. J. O. Beran,  
 K. Brandhorst,  S. T. Brown,  E. F. C. Byrd,  Arup K. Chakraborty,  
 G. K. L. Chan,  Chun-Min Chang,  Yunqing Chen,  C.-L. Cheng,  
 Siu Hung Chien,  D. M. Chipman,  D. L. Crittenden,  H. Dachsel,  
 R. J. Doerksen,  A. D. Dutoi,  R. G. Edgar,  J. Fosso-Tande,  
 L. Fusti-Molnar,  D. Ghosh,  A. Ghysels,  A. Golubeva-Zadorozhnaya,  
 J. Gonthier,  M. S. Gordon,  S. R. Gwaltney,  G. Hawkins,  J. E. Herr,  
 A. Heyden,  S. Hirata,  E. G. Hohenstein,  G. Kedziora,  F. J. Keil,  
 C. Kelley,  Jihan Kim,  R. A. King,  R. Z. Khaliullin,  P. P. Korambath,  
 W. Kurlancheek,  A. Laurent,  A. M. Lee,  M. S. Lee,  S. V. Levchenko,  
 Ching Yeh Lin,  D. Liotard,  E. Livshits,  R. C. Lochan,  I. Lotan,  
 L. A. Martinez-Martinez,  P. E. Maslen,  N. Nair,  D. P. O'Neill,  
 D. Neuhauser,  E. Neuscamman,  C. M. Oana,  R. Olivares-Amaya,  R. Olson,  
 T. M. Perrine,  B. Peters,  P. A. Pieniazek,  A. Prociuk,  Y. M. Rhee,  
 J. Ritchie,  M. A. Rohrdanz,  E. Rosta,  N. J. Russ,  H. F. Schaefer III,  
 M. W. Schmidt,  N. E. Schultz,  S. Sharma,  N. Shenvi,  C. D. Sherrill,  
 A. C. Simmonett,  A. Sodt,  T. Stein,  D. Stuck,  K. S. Thanthiriwatte,  
 V. Vanovschi,  L. Vogt,  Tao Wang,  A. Warshel,  M. A. Watson,  
 C. F. Williams,  Q. Wu,  X. Xu,  Jun Yang,  W. Zhang,  Yan Zhao

   Please cite Q-Chem as follows:
  "Software for the frontiers of quantum chemistry:
   An overview of developments in the Q-Chem 5 package"
   J. Chem. Phys. 155, 084801 (2021)
   https://doi.org/10.1063/5.0055522 (open access)

 Q-Chem 6.1.1 for Intel X86 EM64T Linux

 Parts of Q-Chem use Armadillo 9.900.5 (Nocturnal Misbehaviour).
 http://arma.sourceforge.net/

 Q-Chem begins on Wed May 29 23:49:01 2024  

 Host: 
0

     Scratch files written to /data/scratch/Me3SiH_ICN_eda2_op1_wB97X-V_tzvppd20240529234900//
 Jan1824 |scratch|qcdevops|jenkins|workspace|build_RNUM -1
 Processing $rem in /opt/qchem/6.1/config/preferences:
 Processing $rem in /home/ymao/.qchemrc:

 Q-Chem warning in module libgen/rem_setup.C, line 3361:

 Neither GIA nor STOLL is specified by user. Use STOLL as the default


 Checking the input file for inconsistencies... 	...done.
 Reading auxiliary files from /opt/qchem/6.1/qcaux (QCAUX)

--------------------------------------------------------------
User input:
--------------------------------------------------------------
$molecule
0 1
--
0 1
H    -1.35530   -0.00009   0.96646
Si   -2.53568   -0.00003   0.02213
C    -2.42322   -1.55027   -1.03852
H    -1.50030   -1.55984   -1.64054
H    -2.43158   -2.46207   -0.42004
H    -3.27588   -1.60939   -1.73483
C    -4.09460   -0.00017   1.07385
H    -4.14057   -0.89063   1.72067
H    -4.99405   -0.00012   0.43638
H    -4.14060   0.89015    1.72086
C    -2.42329   1.55043    -1.03821
H    -3.27596   1.60964    -1.73451
H    -1.50038   1.56016    -1.64023
H    -2.43171   2.46210    -0.41956
--
0 1
I    1.25298    0.00001    0.26011
C    3.19904    0.00005    -0.26107
N    4.31717    0.00017    -0.56149
$end

$rem
JOBTYPE  EDA
EDA2  1
METHOD  WB97X-V
BASIS  DEF2-TZVPPD
SYMMETRY  FALSE
SYM_IGNORE  TRUE
MEM_TOTAL  8000
MEM_STATIC  2000
BASIS_LIN_DEP_THRESH  6
THRESH  14
SCF_CONVERGENCE  8
GEN_SCFMAN  TRUE
MAXSCF  200
FD_MAT_VEC_PROD  FALSE
XC_GRID  000099000590
NL_GRID  1
SCF_GUESS  FRAGMO
FRZ_ORTHO_DECOMP  -1
EDA_CLS_DISP  TRUE
EDA_POL_A  TRUE
EDA_VCT_A  TRUE
EDA_SAVE_COVP  TRUE
EDA_COVP_THRESH  500
MAKE_CUBE_FILES  TRUE
PLOTS  TRUE
$end

$plots
grid_points 100 100 100
$end
--------------------------------------------------------------
 ----------------------------------------------------------------
             Standard Nuclear Orientation (Angstroms)
    I     Atom           X                Y                Z
 ----------------------------------------------------------------
    1      H      -1.3553000000    -0.0000900000     0.9664600000
    2      Si     -2.5356800000    -0.0000300000     0.0221300000
    3      C      -2.4232200000    -1.5502700000    -1.0385200000
    4      H      -1.5003000000    -1.5598400000    -1.6405400000
    5      H      -2.4315800000    -2.4620700000    -0.4200400000
    6      H      -3.2758800000    -1.6093900000    -1.7348300000
    7      C      -4.0946000000    -0.0001700000     1.0738500000
    8      H      -4.1405700000    -0.8906300000     1.7206700000
    9      H      -4.9940500000    -0.0001200000     0.4363800000
   10      H      -4.1406000000     0.8901500000     1.7208600000
   11      C      -2.4232900000     1.5504300000    -1.0382100000
   12      H      -3.2759600000     1.6096400000    -1.7345100000
   13      H      -1.5003800000     1.5601600000    -1.6402300000
   14      H      -2.4317100000     2.4621000000    -0.4195600000
   15      I       1.2529800000     0.0000100000     0.2601100000
   16      C       3.1990400000     0.0000500000    -0.2610700000
   17      N       4.3171700000     0.0001700000    -0.5614900000
 ----------------------------------------------------------------
 Nuclear Repulsion Energy =         436.60698107 hartrees
 There are       40 alpha and       40 beta electrons
 Requested basis set is def2-TZVPPD
 There are 170 shells and 462 basis functions

 Total QAlloc Memory Limit   8000 MB
 Mega-Array Size      1956 MB
 MEM_STATIC part      2000 MB

 A cutoff of  1.0D-14 yielded  12414 shell pairs
 There are     90616 function pairs (    113433 Cartesian)
 Requested basis set is def2-TZVPPD
 Compound shells will be simplified
 There are 170 shells and 462 basis functions
 A cutoff of  1.0D-14 yielded  12414 shell pairs
 There are     90616 function pairs (    113433 Cartesian)
 Smallest overlap matrix eigenvalue = 2.12E-05

 Scale SEOQF with 1.000000e-01/1.000000e-01/1.000000e-01

 Standard Electronic Orientation quadrupole field applied
 Nucleus-field energy     =     0.0000000203 hartrees

 -----------------------------------------------------------------------
  General SCF calculation program by
  Eric Jon Sundstrom, Paul Horn, Yuezhi Mao, Dmitri Zuev, Alec White,
  David Stuck, Shaama M.S., Shane Yost, Joonho Lee, David Small,
  Daniel Levine, Susi Lehtola, Hugh Burton, Evgeny Epifanovsky,
  Bang C. Huynh
 -----------------------------------------------------------------------
================================================================
                 ALMO-EDA with the EDA2 driver                  
================================================================
 The second-generation ALMO-EDA (for DFT):                      
 P. R. Horn, Y. Mao and M. Head-Gordon, PCCP, 18, 23067 (2016)  
 Y. Mao et al. Annu. Rev. Phys. Chem. 72, 641 (2021)            
 Decomposition of the frozen energy:                            
 P. R. Horn, Y. Mao and M. Head-Gordon, JCP, 144, 114107 (2016) 
 FERF model for polarization:                                   
 P. R. Horn and M. Head-Gordon, JCP, 143, 114111 (2015)         
================================================================
 Using eda2 option set 1
 Option set summary: Frozen orbital wavefunction, initial wavefunction decomposition, and nDQ polarization.
--------------------------------
Printing EDA Options
--------------------------------
eda_child_super_basis      0
fragmo_guess_mode          0
child_mp                   1
child_mp_orders            232
cls_elec                   1
cls_disp                   1
scfmi_mode                 1
scfmi_occs                 0
scfmi_virts                0
frz_relax                  0
frz_relax_method           0
dc_pen_start               0
dc_pen_conv                0
dc_pen_increment           0
dc_pen_steps               0
dc_pen_thresh_factor       0
dc_pen_pre_newton_thresh   0
frz_ortho_decomp           0
frz_ortho_decomp_conv      6
plot_mo_ortho_frz          0
frgm_method                2
scfmi_freeze_ss            0
separate_rehyb             0
plot_diff_den              0
eda_nocv                   0
eda_vct_relax              1
disp_free_x                0
disp_free_c                0
eda_bsse                   0
eda_pct_a                  0
eda_covp                   0
eda_vct_a                  1
--------------------------------
 Attempting to make child job directory: /data/scratch/Me3SiH_ICN_eda2_op1_wB97X-V_tzvppd20240529234900//Frg1/
 Attempting to make child job directory: /data/scratch/Me3SiH_ICN_eda2_op1_wB97X-V_tzvppd20240529234900//Frg2/
 Creating input file /data/scratch/Me3SiH_ICN_eda2_op1_wB97X-V_tzvppd20240529234900/Frg1.input
 using default PutDataFrgm: nothing
 calling putenv with: QCSCRATCH=/data/scratch/Me3SiH_ICN_eda2_op1_wB97X-V_tzvppd20240529234900/ 
 Spawning Job For Fragment 0
 Done Job For Fragment 0
 calling putenv with: QCSCRATCH=/data/scratch 
 calling putenv with: QCTHREADS=16 
 Creating input file /data/scratch/Me3SiH_ICN_eda2_op1_wB97X-V_tzvppd20240529234900/Frg2.input
 using default PutDataFrgm: nothing
 calling putenv with: QCSCRATCH=/data/scratch/Me3SiH_ICN_eda2_op1_wB97X-V_tzvppd20240529234900/ 
 Spawning Job For Fragment 1
 Done Job For Fragment 1
 calling putenv with: QCSCRATCH=/data/scratch 
 calling putenv with: QCTHREADS=16 
Doing General SCFMI
 Exchange:     0.1670 Hartree-Fock + 1.0000 wB97X-V + LR-HF
 Correlation:  1.0000 wB97X-V
 Using Euler-Maclaurin-Lebedev (99,590) quadrature formula
 Nonlocal Correlation:  VV10 with C = 0.0100 and b = 6.00 and scale = 1.00000
 Grid used for NLC:  SG-1 standard quadrature
performing fock build before subrot guess so that all methods have access
Printing subrot_rss_gen Method Specification:
Occupied Subspace Method is 0
Virtual Subspace Method is 0
Energy of the unrelaxed supersystem initial determinant -800.360821350629
write pseudocanon occs and virts to disk
write pseudocanon orbital energies to disk
 Exchange:     0.1670 Hartree-Fock + 1.0000 wB97X-V + LR-HF
 Correlation:  1.0000 wB97X-V
 Using Euler-Maclaurin-Lebedev (99,590) quadrature formula
 Nonlocal Correlation:  VV10 with C = 0.0100 and b = 6.00 and scale = 1.00000
 Grid used for NLC:  SG-1 standard quadrature
 Long-range K will be added via erf
 Coulomb attenuation parameter = 0.3 bohr**(-1)
 Nonlocal correlation = 0.311800437250
 Hartree-Fock
Doing General SCFMI
 Exchange:     0.1670 Hartree-Fock + 1.0000 wB97X-V + LR-HF
 Correlation:  1.0000 wB97X-V
 Using Euler-Maclaurin-Lebedev (99,590) quadrature formula
 Nonlocal Correlation:  VV10 with C = 0.0100 and b = 6.00 and scale = 1.00000
 Grid used for NLC:  SG-1 standard quadrature
performing fock build at end of subrot_r(subrot) constructor so that all methods have access
<S^2> of initial wavefunction before polarization iterations 0.0000000000
Beginning iterations for the determination of the polarized wavefunction
Energy prior to optimization (guess energy) = -800.360821350629
Begin Timing: Total SCF Calculation
begin iterations for algorithm: DIIS         
the SCF tolerance is set to 1.00e-08
    1    -800.3608213506      1.65e-04     00000 
    2    -800.3627799887      6.05e-05     00000 
    3    -800.3629843021      3.42e-05     00000 
    4    -800.3630260495      1.76e-05     00000 
    5    -800.3630358161      9.02e-06     00000 
    6    -800.3630394136      3.91e-06     00000 
    7    -800.3630404814      1.54e-06     00000 
    8    -800.3630407131      6.91e-07     00000 
    9    -800.3630407382      3.02e-07     00000 
   10    -800.3630407425      1.32e-07     00000 
   11    -800.3630407431      6.96e-08     00000 
   12    -800.3630407433      2.63e-08     00000 
   13    -800.3630407434      9.73e-09     00000 Convergence criterion met
write pseudocanon occs and virts to disk
write pseudocanon orbital energies to disk
Timing for Total SCF: 247.00s (wall), 3630.71s (cpu)
<S^2> of polarized wavefunction after polarization iterations 0.0000000000
Doing General SCFMI
 Exchange:     0.1670 Hartree-Fock + 1.0000 wB97X-V + LR-HF
 Correlation:  1.0000 wB97X-V
 Using Euler-Maclaurin-Lebedev (99,590) quadrature formula
 Nonlocal Correlation:  VV10 with C = 0.0100 and b = 6.00 and scale = 1.00000
 Grid used for NLC:  SG-1 standard quadrature
performing fock build at end of subrot_r(subrot) constructor so that all methods have access
GDM subspace size: 20
    1       0.0038535162      2.95e-03     00000 Preconditoned Steepest Descent
    2       0.0344662822      8.78e-03     00000 LineSearch Step
    3       0.0000000327      8.61e-06     00000 BFGS Step
    4       0.0000000049      3.32e-06     00000 BFGS Step
    5       0.0000000214      6.97e-06     00000 LineSearch Step
    6       0.0000000005      1.07e-06     00000 BFGS Step
    7       0.0000000000      5.89e-08     00000 BFGS Step
GDM subspace size: 20
    1       0.0007157120      1.69e-03     00000 Preconditoned Steepest Descent
    2       0.0064374366      5.08e-03     00000 LineSearch Step
    3       0.0000000001      6.43e-07     00000 BFGS Step
    4       0.0000000000      2.08e-07     00000 BFGS Step
    5       0.0000000001      4.82e-07     00000 LineSearch Step
    6       0.0000000000      5.88e-08     00000 BFGS Step
    7       0.0000000000      2.22e-09     00000 BFGS Step
=========Fragment P Connection POL Analysis Result=========
P Connection Polarization Energy (kJ/mol)  : -5.827015
P Connection On-Fragment Charge Shift (me-): +4.103414
First Principle Polarization Energy (kJ/mol)  : -5.827015
First Principle On-Fragment Charge Shift (me-): +4.103414
___________________________________________________________
=========Fragment-wise P Connection POL Analysis=========
[Fragment 1]
E_1 (kJ/mol): -5.103095, Q_1 (me-): +3.462426
[Fragment 2]
E_2 (kJ/mol): -0.723920, Q_2 (me-): +0.640988
_________________________________________________________
==============================================================
           Fragment P Connection POL COVP Analysis            
==============================================================
Using user defined COVP significance threshold 0.500 (kJ/mol)
--------------------------------------------------------------
 D  A  dE (kJ/mol)  dE %    dQ (me-)  dQ %    idx(D)  idx(A)
 1  1   -4.1785     71.71   2.9252    71.29     1       2   
______________________________________________________________
relaxing scfmi constraint to allow all rotations in the entire AO span
Doing General SCFMI
 Exchange:     0.1670 Hartree-Fock + 1.0000 wB97X-V + LR-HF
 Correlation:  1.0000 wB97X-V
 Using Euler-Maclaurin-Lebedev (99,590) quadrature formula
 Nonlocal Correlation:  VV10 with C = 0.0100 and b = 6.00 and scale = 1.00000
 Grid used for NLC:  SG-1 standard quadrature
performing fock build at end of subrot_r(subrot) constructor so that all methods have access
<S^2> of polarized wavefunction before ct-allowed iterations 0.0000000000
Beginning iterations for the determination of the CT-Allowed wavefunction
Energy prior to optimization (guess energy) = -800.363040743358
Begin Timing: Total SCF Calculation
begin iterations for algorithm: DIIS         
the SCF tolerance is set to 1.00e-08
    1    -800.3630407434      2.70e-04     00000 
    2    -800.3663710800      2.33e-05     00000 
    3    -800.3665955932      7.11e-06     00000 
    4    -800.3666161683      5.01e-06     00000 
    5    -800.3666184968      1.53e-06     00000 
    6    -800.3666187712      6.91e-07     00000 
    7    -800.3666188307      1.30e-07     00000 
    8    -800.3666188335      4.19e-08     00000 
    9    -800.3666188340      1.07e-08     00000 
   10    -800.3666188340      3.55e-09     00000 Convergence criterion met
write pseudocanon occs and virts to disk
write pseudocanon orbital energies to disk
Timing for Total SCF: 151.00s (wall), 2390.32s (cpu)
<S^2> of ct_allowed wavefunction after ct-allowed iterations 0.0000000000
GDM subspace size: 20
    1       0.0071703240      1.84e-03     00000 Preconditoned Steepest Descent
    2       0.0637749715      5.43e-03     00000 LineSearch Step
    3       0.0000002098      9.97e-06     00000 BFGS Step
    4       0.0000000304      3.80e-06     00000 BFGS Step
    5       0.0000001359      8.03e-06     00000 LineSearch Step
    6       0.0000000031      1.21e-06     00000 BFGS Step
    7       0.0000000000      6.60e-08     00000 BFGS Step

==============Non-Perturbative CT Analysis Result===============
Non-Perturbative CT Energy (kJ/mol)   : -9.394276
Non-Perturbative Charge Transfer (me-): +7.170324
First Principle CT Energy (kJ/mol)    : -9.394276
First Principle Charge Transfer (me-) : +7.170324
_______________________________________________________________
========Fragment-wise Non-Perturbative CT Analysis=======
---Fragment-wise CT energies (row to col, kJ/mol)
			1			2
	1    0.008873   -7.592488
	2   -1.775769   -0.034892
---Fragment-wise charge transfer (row to col, me-)
			1			2
	1   -0.110727    6.391802
	2    1.013463   -0.124214
_________________________________________________________
==============================================================
              Non-Perturbative CT COVP Analysis               
==============================================================
Using user defined COVP significance threshold 0.500 (kJ/mol)
--------------------------------------------------------------
 D  A  dE (kJ/mol)  dE %    dQ (me-)  dQ %    idx(D)  idx(A)
 1  2   -7.4126     78.91   6.3054    87.94     3       4   
 2  1   -0.9188     9.78    0.4699    6.55      5       6   
______________________________________________________________
Done with restricted VCTA
Beginning cube_generation (with a 'new' $plots section):
The cube files of the following orbitals are generated: 
 1 2 3 4 5 6
Grid information in Angstroms:
 x:        100  min =  -7.994050 max =   7.317170
 y:        100  min =  -5.462070 max =   5.462100
 z:        100  min =  -4.734830 max =   4.720860
 Created directory /data/scratch/Me3SiH_ICN_eda2_op1_wB97X-V_tzvppd20240529234900/plots

================================
        Results of EDA2         
================================
Basic EDA Quantities
--------------------
Fragment Energies (Ha):
1 -409.8389372169
2 -390.5215059105
--------------------
  E_prp (kJ/mol) = 0.0000
  E_frz (kJ/mol) = -0.9930
  E_pol (kJ/mol) = -5.8271
  E_vct (kJ/mol) = -9.3944
  E_int (kJ/mol) = -16.2145
--------------------


Decomposition of frozen interaction energy
--------------------
  --------------------
  Classical Frozen Decomposition:
  --------------------
     E_cls_elec  (CLS ELEC)  (kJ/mol) = -21.4954
     E_mod_pauli (MOD PAULI) (kJ/mol) = 36.7322 (FRZ - CLS ELEC - CLS DISP)
     E_cls_disp  (CLS DISP)  (kJ/mol) = -16.2299
  --------------------
--------------------

Simplified EDA Summary (kJ/mol)
--------------------
 PREPARATION      0.0000
 FROZEN           -0.9930 (ELEC + PAULI + DISP)
[ELEC + PAULI = 15.2368, DISP = -16.2299]
 POLARIZATION    -5.8271
 CHARGE TRANSFER -9.3944
 TOTAL           -16.2145     (PRP + FRZ + POL + CT)
--------------------
 
 --------------------------------------------------------------
 
                    Orbital Energies (a.u.)
 --------------------------------------------------------------
 
 Alpha MOs
 -- Occupied --
-66.1306 -14.4237 -10.3364 -10.2631 -10.2626 -10.2626  -7.0002  -5.3820
 -5.0349  -5.0182  -5.0181  -3.7326  -3.7311  -3.7311  -2.0882  -2.0824
 -2.0824  -2.0684  -2.0684  -1.0466  -0.8921  -0.8601  -0.8211  -0.8207
 -0.6252  -0.5974  -0.5425  -0.5309  -0.5305  -0.5114  -0.5113  -0.5003
 -0.4875  -0.4874  -0.4844  -0.4271  -0.4203  -0.4199  -0.3922  -0.3919
 -- Virtual --
  0.0218   0.0466   0.0518   0.0522   0.0551   0.0780   0.0811   0.0812
  0.0920   0.0927   0.1132   0.1137   0.1178   0.1236   0.1313   0.1388
  0.1415   0.1500   0.1613   0.1616   0.1674   0.1741   0.1743   0.1823
  0.1837   0.1889   0.1929   0.1987   0.2031   0.2149   0.2286   0.2370
  0.2400   0.2406   0.2519   0.2556   0.2622   0.2664   0.2791   0.2802
  0.2880   0.2992   0.3047   0.3070   0.3090   0.3139   0.3163   0.3185
  0.3228   0.3308   0.3324   0.3392   0.3438   0.3492   0.3544   0.3558
  0.3631   0.3680   0.3714   0.3771   0.3773   0.3880   0.3897   0.3966
  0.4055   0.4097   0.4130   0.4181   0.4253   0.4256   0.4290   0.4394
  0.4483   0.4535   0.4566   0.4585   0.4690   0.4757   0.4865   0.4938
  0.4963   0.5012   0.5086   0.5136   0.5203   0.5205   0.5261   0.5273
  0.5302   0.5408   0.5507   0.5516   0.5601   0.5620   0.5751   0.5803
  0.5804   0.5970   0.5998   0.6047   0.6103   0.6184   0.6327   0.6336
  0.6394   0.6513   0.6616   0.6676   0.6833   0.6840   0.6992   0.7239
  0.7277   0.7338   0.7414   0.7440   0.7460   0.7555   0.7689   0.7780
  0.7841   0.7936   0.8024   0.8049   0.8078   0.8122   0.8223   0.8304
  0.8317   0.8342   0.8436   0.8713   0.8767   0.8778   0.8859   0.8933
  0.9036   0.9064   0.9127   0.9347   0.9395   0.9488   0.9491   0.9598
  0.9747   0.9851   0.9943   0.9986   0.9989   1.0085   1.0506   1.0540
  1.0684   1.0905   1.1217   1.1372   1.1425   1.1449   1.1526   1.1653
  1.1688   1.2038   1.2370   1.2632   1.2719   1.2745   1.2825   1.2836
  1.2995   1.3040   1.3159   1.3159   1.3182   1.3242   1.3417   1.3490
  1.3628   1.3985   1.4224   1.4413   1.4514   1.4520   1.4579   1.4609
  1.4656   1.4815   1.4893   1.5045   1.5191   1.5269   1.5309   1.5558
  1.5599   1.5755   1.5920   1.6012   1.6189   1.6268   1.6415   1.6434
  1.6538   1.6599   1.6912   1.7080   1.7099   1.7120   1.7362   1.7374
  1.7507   1.7687   1.7734   1.7840   1.7988   1.8149   1.8199   1.8242
  1.8312   1.8458   1.8754   1.8875   1.8878   1.9195   1.9207   1.9420
  1.9520   1.9582   1.9798   1.9957   1.9994   2.0141   2.1482   2.1614
  2.1879   2.2200   2.3394   2.3511   2.4192   2.4442   2.5682   2.5881
  2.6055   2.6175   2.6352   2.7425   2.7426   2.7495   2.7654   2.8484
  2.8500   2.8859   2.8862   2.8902   2.9037   2.9399   2.9451   2.9513
  2.9607   2.9637   2.9801   2.9802   2.9862   3.0114   3.0141   3.0289
  3.0471   3.0548   3.0771   3.1099   3.1116   3.1167   3.1270   3.1600
  3.1690   3.1696   3.1716   3.1810   3.1931   3.1969   3.2009   3.2077
  3.2132   3.2361   3.2378   3.2660   3.2710   3.2737   3.3069   3.3180
  3.3310   3.3311   3.3328   3.3800   3.3861   3.4653   3.4896   3.4967
  3.5236   3.5256   3.5340   3.5465   3.5650   3.5759   3.5829   3.5962
  3.6057   3.6150   3.6173   3.6532   3.6632   3.6684   3.6931   3.6942
  3.7071   3.7311   3.7404   3.7507   3.7741   3.8086   3.8163   3.8295
  3.8448   3.8800   3.9381   4.0011   4.0170   4.0347   4.0719   4.0719
  4.0829   4.0845   4.0899   4.1193   4.1298   4.1426   4.1573   4.1582
  4.2045   4.2324   4.2327   4.2683   4.2738   4.2767   4.2963   4.2987
  4.3464   4.3845   4.3944   4.3960   4.4011   4.4053   4.4188   4.4255
  4.4598   4.4668   4.4838   4.6043   4.6046   4.6673   4.6705   4.6847
  4.7011   4.7012   4.7139   4.7153   4.7817   4.8095   4.8283   4.8342
  4.8348   4.9440   4.9616   4.9665   5.1264   5.1273   5.1301   5.1478
  5.1498   5.1787   5.1802   5.2051   5.2230   5.2240   5.2672   5.2750
  5.2844   5.2858   5.3470   5.3675   5.3720   5.4409   5.4417   5.4528
  5.4920   5.4920   5.5254   5.5676   5.5700   5.5789   5.6045   5.6177
  5.6866   5.7715   5.7853   5.7888   5.8013   5.8134   5.8158   5.9743
  6.8777   6.8918   6.9876  12.3322  22.9546  23.6190  23.6207  23.6409
 32.4362  34.7044  34.7433  35.0530  43.2917 118.4235
 --------------------------------------------------------------
 
          Ground-State Mulliken Net Atomic Charges

     Atom                 Charge (a.u.)
  ----------------------------------------
      1 H                    -0.173037
      2 Si                    0.062477
      3 C                    -0.192103
      4 H                     0.074872
      5 H                     0.064705
      6 H                     0.084593
      7 C                    -0.189969
      8 H                     0.067088
      9 H                     0.082724
     10 H                     0.067089
     11 C                    -0.192112
     12 H                     0.084591
     13 H                     0.074876
     14 H                     0.064707
     15 I                     0.300641
     16 C                    -0.082948
     17 N                    -0.198195
  ----------------------------------------
  Sum of atomic charges =     0.000000

 -----------------------------------------------------------------
                    Cartesian Multipole Moments
 -----------------------------------------------------------------
    Charge (ESU x 10^10)
                -0.0000
    Dipole Moment (Debye)
         X      -5.2823      Y      -0.0002      Z       0.5328
       Tot       5.3091
    Quadrupole Moments (Debye-Ang)
        XX     -89.1033     XY      -0.0010     YY     -72.5992
        XZ       4.0770     YZ       0.0002     ZZ     -73.2188
    Octopole Moments (Debye-Ang^2)
       XXX     -54.7558    XXY      -0.0057    XYY      21.8973
       YYY      -0.0041    XXZ      16.8365    XYZ       0.0004
       YYZ       8.1762    XZZ      19.8967    YZZ      -0.0004
       ZZZ      13.7189
    Hexadecapole Moments (Debye-Ang^3)
      XXXX   -3624.4362   XXXY      -0.0504   XXYY    -576.6503
      XYYY      -0.0211   YYYY    -356.7420   XXXZ     136.3390
      XXYZ       0.0040   XYYZ      -2.5681   YYYZ      -0.0013
      XXZZ    -578.6113   XYZZ      -0.0104   YYZZ    -112.5561
      XZZZ      25.9389   YZZZ      -0.0012   ZZZZ    -312.8530
 -----------------------------------------------------------------
 Total job time:  1382.05s(wall), 10593.37s(cpu) 
 Thu May 30 00:12:03 2024

        *************************************************************
        *                                                           *
        *  Thank you very much for using Q-Chem.  Have a nice day.  *
        *                                                           *
        *************************************************************


