
Running Job 1 of 1 Me3SiH_ICF3_eda2_op1_wB97X-V_tzvppd.in
qchem Me3SiH_ICF3_eda2_op1_wB97X-V_tzvppd.in_113469.0 /data/scratch/Me3SiH_ICF3_eda2_op1_wB97X-V_tzvppd20240529181418/ 1
/opt/qchem/6.1/exe/qcprog.exe_s Me3SiH_ICF3_eda2_op1_wB97X-V_tzvppd.in_113469.0 /data/scratch/Me3SiH_ICF3_eda2_op1_wB97X-V_tzvppd20240529181418/
                  Welcome to Q-Chem
     A Quantum Leap Into The Future Of Chemistry


 Q-Chem 6.1, Q-Chem, Inc., Pleasanton, CA (2023)

 E. Epifanovsky,  A. T. B. Gilbert,  Xintian Feng,  Joonho Lee,  Yuezhi Mao,  
 N. Mardirossian,  P. Pokhilko,  A. White,  M. Wormit,  M. P. Coons,  
 A. L. Dempwolff,  Zhengting Gan,  D. Hait,  P. R. Horn,  L. D. Jacobson,  
 I. Kaliman,  J. Kussmann,  A. W. Lange,  Ka Un Lao,  D. S. Levine,  Jie Liu,  
 S. C. McKenzie,  A. F. Morrison,  K. D. Nanda,  F. Plasser,  D. R. Rehn,  
 M. L. Vidal,  Zhi-Qiang You,  Ying Zhu,  B. Alam,  B. Albrecht,  
 A. Aldossary,  E. Alguire,  J. H. Andersen,  V. Athavale,  D. Barton,  
 K. Begam,  A. Behn,  N. Bellonzi,  Y. A. Bernard,  E. J. Berquist,  
 H. Burton,  A. Carreras,  K. Carter-Fenk,  Mathew Chow,  Romit Chakraborty,  
 Chandrima Chakravarty,  Junhan Chen,  A. D. Chien,  K. D. Closser,  
 V. Cofer-Shabica,  L. Cunha,  S. Dasgupta,  Jia Deng,  M. de Wergifosse,  
 M. Diedenhofen,  Hainam Do,  S. Ehlert,  Po-Tung Fang,  S. Fatehi,  
 Qingguo Feng,  T. Friedhoff,  Thomas Froitzheim,  B. Ganoe,  J. Gayvert,  
 Qinghui Ge,  G. Gidofalvi,  M. Gimferrer,  M. Goldey,  Montgomery Gray,  
 J. Gomes,  C. Gonzalez-Espinoza,  S. Gulania,  A. Gunina,  J. A. Gyamfi,  
 M. W. D. Hanson-Heine,  P. H. P. Harbach,  A. W. Hauser,  M. F. Herbst,  
 M. Hernandez Vera,  M. Hodecker,  Z. C. Holden,  S. Houck,  Xunkun Huang,  
 Kerwin Hui,  B. C. Huynh,  K. Ikeda,  M. Ivanov,  Hyunjun Ji,  Zuxin Jin,  
 Hanjie Jiang,  Subrata Jana,  B. Kaduk,  S. Kaehler,  R. Kang,  
 K. Khistyaev,  Jaehoon Kim,  Yongbin Kim,  P. Klunzinger,  Z. Koczor-Benda,  
 Joong Hoon Koh,  D. Kosenkov,  Saikiran Kotaru,  L. Koulias,  T. Kowalczyk,  
 C. M. Krauter,  K. Kue,  A. Kunitsa,  T. Kus,  A. Landau,  K. V. Lawler,  
 D. Lefrancois,  S. Lehtola,  Rain Li,  Shaozhi Li,  Yi-Pei Li,  
 Jiashu Liang,  M. Liebenthal,  Hung-Hsuan Lin,  You-Sheng Lin,  Fenglai Liu,  
 Kuan-Yu Liu,  Xiao Liu,  M. Loipersberger,  A. Luenser,  C. Malbon,  
 A. Manjanath,  P. Manohar,  E. Mansoor,  S. F. Manzer,  Shan-Ping Mao,  
 A. V. Marenich,  T. Markovich,  S. Mason,  F. Matz,  S. A. Maurer,  
 P. F. McLaughlin,  M. F. S. J. Menger,  J.-M. Mewes,  S. A. Mewes,  
 P. Morgante,  Mohammad Mostafanejad,  J. W. Mullinax,  K. J. Oosterbaan,  
 G. Paran,  V. Parravicini,  Alexander C. Paul,  Suranjan K. Paul,  
 F. Pavosevic,  Zheng Pei,  S. Prager,  E. I. Proynov,  E. Ramos,  B. Rana,  
 A. E. Rask,  A. Rettig,  R. M. Richard,  F. Rob,  E. Rossomme,  T. Scheele,  
 M. Scheurer,  M. Schneider,  P. E. Schneider,  Tim K. Schramm,  N. Sergueev,  
 S. M. Sharada,  M. Sharma,  Hengyuan Shen,  W. Skomorowski,  D. W. Small,  
 C. J. Stein,  Alistair J. Sterling,  Yingli Su,  Yu-Chuan Su,  
 E. J. Sundstrom,  J. Talbot,  Zhen Tao,  J. Thirman,  Hung-Yi Tsai,  
 T. Tsuchimochi,  N. M. Tubman,  C. Utku,  S. P. Veccham,  O. Vydrov,  
 J. Wenzel,  Jonathan Wong,  J. Witte,  A. Yamada,  Chou-Hsun Yang,  Kun Yao,  
 S. Yeganeh,  S. R. Yost,  A. Zech,  F. Zeller,  Igor Ying Zhang,  
 Xing Zhang,  Yu Zhang,  D. Zuev,  A. Aspuru-Guzik,  A. T. Bell,  
 N. A. Besley,  K. B. Bravaya,  B. R. Brooks,  D. Casanova,  Jeng-Da Chai,  
 Hsing-Ta Chen,  S. Coriani,  C. J. Cramer,  A. E. DePrince, III,  
 R. A. DiStasio Jr.,  A. Dreuw,  B. D. Dunietz,  T. R. Furlani,  
 W. A. Goddard III,  S. Grimme,  S. Hammes-Schiffer,  T. Head-Gordon,  
 W. J. Hehre,  Chao-Ping Hsu,  T.-C. Jagau,  Yousung Jung,  A. Klamt,  
 Jing Kong,  D. S. Lambrecht,  Xiangyuan Li,  WanZhen Liang,  N. J. Mayhall,  
 C. W. McCurdy,  J. B. Neaton,  T. Neudecker,  C. Ochsenfeld,  
 J. A. Parkhill,  R. Peverati,  V. A. Rassolov,  Haisheng Ren,  Yihan Shao,  
 L. V. Slipchenko,  R. P. Steele,  J. E. Subotnik,  A. J. W. Thom,  
 A. Tkatchenko,  D. G. Truhlar,  T. Van Voorhis,  Fan Wang,  
 T. A. Wesolowski,  K. B. Whaley,  H. L. Woodcock III,  P. M. Zimmerman,  
 S. Faraji,  P. M. W. Gill,  M. Head-Gordon,  J. M. Herbert,  A. I. Krylov

 Contributors to earlier versions of Q-Chem not listed above: 
 R. D. Adamson,  B. Austin,  R. Baer,  J. Baker,  G. J. O. Beran,  
 K. Brandhorst,  S. T. Brown,  E. F. C. Byrd,  Arup K. Chakraborty,  
 G. K. L. Chan,  Chun-Min Chang,  Yunqing Chen,  C.-L. Cheng,  
 Siu Hung Chien,  D. M. Chipman,  D. L. Crittenden,  H. Dachsel,  
 R. J. Doerksen,  A. D. Dutoi,  R. G. Edgar,  J. Fosso-Tande,  
 L. Fusti-Molnar,  D. Ghosh,  A. Ghysels,  A. Golubeva-Zadorozhnaya,  
 J. Gonthier,  M. S. Gordon,  S. R. Gwaltney,  G. Hawkins,  J. E. Herr,  
 A. Heyden,  S. Hirata,  E. G. Hohenstein,  G. Kedziora,  F. J. Keil,  
 C. Kelley,  Jihan Kim,  R. A. King,  R. Z. Khaliullin,  P. P. Korambath,  
 W. Kurlancheek,  A. Laurent,  A. M. Lee,  M. S. Lee,  S. V. Levchenko,  
 Ching Yeh Lin,  D. Liotard,  E. Livshits,  R. C. Lochan,  I. Lotan,  
 L. A. Martinez-Martinez,  P. E. Maslen,  N. Nair,  D. P. O'Neill,  
 D. Neuhauser,  E. Neuscamman,  C. M. Oana,  R. Olivares-Amaya,  R. Olson,  
 T. M. Perrine,  B. Peters,  P. A. Pieniazek,  A. Prociuk,  Y. M. Rhee,  
 J. Ritchie,  M. A. Rohrdanz,  E. Rosta,  N. J. Russ,  H. F. Schaefer III,  
 M. W. Schmidt,  N. E. Schultz,  S. Sharma,  N. Shenvi,  C. D. Sherrill,  
 A. C. Simmonett,  A. Sodt,  T. Stein,  D. Stuck,  K. S. Thanthiriwatte,  
 V. Vanovschi,  L. Vogt,  Tao Wang,  A. Warshel,  M. A. Watson,  
 C. F. Williams,  Q. Wu,  X. Xu,  Jun Yang,  W. Zhang,  Yan Zhao

   Please cite Q-Chem as follows:
  "Software for the frontiers of quantum chemistry:
   An overview of developments in the Q-Chem 5 package"
   J. Chem. Phys. 155, 084801 (2021)
   https://doi.org/10.1063/5.0055522 (open access)

 Q-Chem 6.1.1 for Intel X86 EM64T Linux

 Parts of Q-Chem use Armadillo 9.900.5 (Nocturnal Misbehaviour).
 http://arma.sourceforge.net/

 Q-Chem begins on Wed May 29 18:14:19 2024  

 Host: 
0

     Scratch files written to /data/scratch/Me3SiH_ICF3_eda2_op1_wB97X-V_tzvppd20240529181418//
 Jan1824 |scratch|qcdevops|jenkins|workspace|build_RNUM -1
 Processing $rem in /opt/qchem/6.1/config/preferences:
 Processing $rem in /home/ymao/.qchemrc:

 Q-Chem warning in module libgen/rem_setup.C, line 3361:

 Neither GIA nor STOLL is specified by user. Use STOLL as the default


 Checking the input file for inconsistencies... 	...done.
 Reading auxiliary files from /opt/qchem/6.1/qcaux (QCAUX)

--------------------------------------------------------------
User input:
--------------------------------------------------------------
$molecule
0 1
--
0 1
C    2.90994    -1.54558   1.02871
Si   3.13158    -0.00044   -0.02503
C    4.81080    -0.00362   -0.87686
C    2.91005    1.55211    1.01780
H    2.07092    -0.00379   -1.09596
H    2.99665    -2.46128   0.42197
H    3.67708    -1.59279   1.81920
H    1.92318    -1.55921   1.51878
H    4.93587    -0.89603   -1.51060
H    4.93610    0.88434    -1.51676
H    5.62582    -0.00116   -0.13437
H    1.92314    1.56917    1.50750
H    3.67698    1.60517    1.80810
H    2.99674    2.46340    0.40444
--
0 1
I    -0.74770   -0.00263   -0.36203
C    -2.81165   -0.00215   0.20722
F    -3.10282   1.08097    0.92845
F    -3.59784   -0.00844   -0.86946
F    -3.10041   -1.07859   0.93930
$end

$rem
JOBTYPE  EDA
EDA2  1
METHOD  WB97X-V
BASIS  DEF2-TZVPPD
SYMMETRY  FALSE
SYM_IGNORE  TRUE
MEM_TOTAL  8000
MEM_STATIC  2000
BASIS_LIN_DEP_THRESH  6
THRESH  14
SCF_CONVERGENCE  8
GEN_SCFMAN  TRUE
MAXSCF  200
FD_MAT_VEC_PROD  FALSE
XC_GRID  000099000590
NL_GRID  1
SCF_GUESS  FRAGMO
FRZ_ORTHO_DECOMP  -1
EDA_CLS_DISP  TRUE
EDA_POL_A  TRUE
EDA_VCT_A  TRUE
EDA_SAVE_COVP  TRUE
EDA_COVP_THRESH  1000
MAKE_CUBE_FILES  TRUE
PLOTS  TRUE
$end

$plots
grid_points 100 100 100
$end
--------------------------------------------------------------
 ----------------------------------------------------------------
             Standard Nuclear Orientation (Angstroms)
    I     Atom           X                Y                Z
 ----------------------------------------------------------------
    1      C       2.9099400000    -1.5455800000     1.0287100000
    2      Si      3.1315800000    -0.0004400000    -0.0250300000
    3      C       4.8108000000    -0.0036200000    -0.8768600000
    4      C       2.9100500000     1.5521100000     1.0178000000
    5      H       2.0709200000    -0.0037900000    -1.0959600000
    6      H       2.9966500000    -2.4612800000     0.4219700000
    7      H       3.6770800000    -1.5927900000     1.8192000000
    8      H       1.9231800000    -1.5592100000     1.5187800000
    9      H       4.9358700000    -0.8960300000    -1.5106000000
   10      H       4.9361000000     0.8843400000    -1.5167600000
   11      H       5.6258200000    -0.0011600000    -0.1343700000
   12      H       1.9231400000     1.5691700000     1.5075000000
   13      H       3.6769800000     1.6051700000     1.8081000000
   14      H       2.9967400000     2.4634000000     0.4044400000
   15      I      -0.7477000000    -0.0026300000    -0.3620300000
   16      C      -2.8116500000    -0.0021500000     0.2072200000
   17      F      -3.1028200000     1.0809700000     0.9284500000
   18      F      -3.5978400000    -0.0084400000    -0.8694600000
   19      F      -3.1004100000    -1.0785900000     0.9393000000
 ----------------------------------------------------------------
 Nuclear Repulsion Energy =         696.68183596 hartrees
 There are       50 alpha and       50 beta electrons
 Requested basis set is def2-TZVPPD
 There are 199 shells and 545 basis functions

 Total QAlloc Memory Limit   8000 MB
 Mega-Array Size      1956 MB
 MEM_STATIC part      2000 MB

 A cutoff of  1.0D-14 yielded  15929 shell pairs
 There are    117387 function pairs (    147373 Cartesian)
 Requested basis set is def2-TZVPPD
 Compound shells will be simplified
 There are 199 shells and 545 basis functions
 A cutoff of  1.0D-14 yielded  15929 shell pairs
 There are    117387 function pairs (    147373 Cartesian)
 Smallest overlap matrix eigenvalue = 1.99E-05

 Scale SEOQF with 1.000000e-02/1.000000e-01/1.000000e-01

 Standard Electronic Orientation quadrupole field applied
 Nucleus-field energy     =     0.0000000019 hartrees

 -----------------------------------------------------------------------
  General SCF calculation program by
  Eric Jon Sundstrom, Paul Horn, Yuezhi Mao, Dmitri Zuev, Alec White,
  David Stuck, Shaama M.S., Shane Yost, Joonho Lee, David Small,
  Daniel Levine, Susi Lehtola, Hugh Burton, Evgeny Epifanovsky,
  Bang C. Huynh
 -----------------------------------------------------------------------
================================================================
                 ALMO-EDA with the EDA2 driver                  
================================================================
 The second-generation ALMO-EDA (for DFT):                      
 P. R. Horn, Y. Mao and M. Head-Gordon, PCCP, 18, 23067 (2016)  
 Y. Mao et al. Annu. Rev. Phys. Chem. 72, 641 (2021)            
 Decomposition of the frozen energy:                            
 P. R. Horn, Y. Mao and M. Head-Gordon, JCP, 144, 114107 (2016) 
 FERF model for polarization:                                   
 P. R. Horn and M. Head-Gordon, JCP, 143, 114111 (2015)         
================================================================
 Using eda2 option set 1
 Option set summary: Frozen orbital wavefunction, initial wavefunction decomposition, and nDQ polarization.
--------------------------------
Printing EDA Options
--------------------------------
eda_child_super_basis      0
fragmo_guess_mode          0
child_mp                   1
child_mp_orders            232
cls_elec                   1
cls_disp                   1
scfmi_mode                 1
scfmi_occs                 0
scfmi_virts                0
frz_relax                  0
frz_relax_method           0
dc_pen_start               0
dc_pen_conv                0
dc_pen_increment           0
dc_pen_steps               0
dc_pen_thresh_factor       0
dc_pen_pre_newton_thresh   0
frz_ortho_decomp           0
frz_ortho_decomp_conv      6
plot_mo_ortho_frz          0
frgm_method                2
scfmi_freeze_ss            0
separate_rehyb             0
plot_diff_den              0
eda_nocv                   0
eda_vct_relax              1
disp_free_x                0
disp_free_c                0
eda_bsse                   0
eda_pct_a                  0
eda_covp                   0
eda_vct_a                  1
--------------------------------
 Attempting to make child job directory: /data/scratch/Me3SiH_ICF3_eda2_op1_wB97X-V_tzvppd20240529181418//Frg1/
 Attempting to make child job directory: /data/scratch/Me3SiH_ICF3_eda2_op1_wB97X-V_tzvppd20240529181418//Frg2/
 Creating input file /data/scratch/Me3SiH_ICF3_eda2_op1_wB97X-V_tzvppd20240529181418/Frg1.input
 using default PutDataFrgm: nothing
 calling putenv with: QCSCRATCH=/data/scratch/Me3SiH_ICF3_eda2_op1_wB97X-V_tzvppd20240529181418/ 
 Spawning Job For Fragment 0
 Done Job For Fragment 0
 calling putenv with: QCSCRATCH=/data/scratch 
 calling putenv with: QCTHREADS=16 
 Creating input file /data/scratch/Me3SiH_ICF3_eda2_op1_wB97X-V_tzvppd20240529181418/Frg2.input
 using default PutDataFrgm: nothing
 calling putenv with: QCSCRATCH=/data/scratch/Me3SiH_ICF3_eda2_op1_wB97X-V_tzvppd20240529181418/ 
 Spawning Job For Fragment 1
 Done Job For Fragment 1
 calling putenv with: QCSCRATCH=/data/scratch 
 calling putenv with: QCTHREADS=16 
Doing General SCFMI
 Exchange:     0.1670 Hartree-Fock + 1.0000 wB97X-V + LR-HF
 Correlation:  1.0000 wB97X-V
 Using Euler-Maclaurin-Lebedev (99,590) quadrature formula
 Nonlocal Correlation:  VV10 with C = 0.0100 and b = 6.00 and scale = 1.00000
 Grid used for NLC:  SG-1 standard quadrature
performing fock build before subrot guess so that all methods have access
Printing subrot_rss_gen Method Specification:
Occupied Subspace Method is 0
Virtual Subspace Method is 0
Energy of the unrelaxed supersystem initial determinant -1045.209148117305
write pseudocanon occs and virts to disk
write pseudocanon orbital energies to disk
 Exchange:     0.1670 Hartree-Fock + 1.0000 wB97X-V + LR-HF
 Correlation:  1.0000 wB97X-V
 Using Euler-Maclaurin-Lebedev (99,590) quadrature formula
 Nonlocal Correlation:  VV10 with C = 0.0100 and b = 6.00 and scale = 1.00000
 Grid used for NLC:  SG-1 standard quadrature
 Long-range K will be added via erf
 Coulomb attenuation parameter = 0.3 bohr**(-1)
 Nonlocal correlation = 0.392282705394
 Hartree-Fock
Doing General SCFMI
 Exchange:     0.1670 Hartree-Fock + 1.0000 wB97X-V + LR-HF
 Correlation:  1.0000 wB97X-V
 Using Euler-Maclaurin-Lebedev (99,590) quadrature formula
 Nonlocal Correlation:  VV10 with C = 0.0100 and b = 6.00 and scale = 1.00000
 Grid used for NLC:  SG-1 standard quadrature
performing fock build at end of subrot_r(subrot) constructor so that all methods have access
<S^2> of initial wavefunction before polarization iterations 0.0000000000
Beginning iterations for the determination of the polarized wavefunction
Energy prior to optimization (guess energy) = -1045.209148117305
Begin Timing: Total SCF Calculation
begin iterations for algorithm: DIIS         
the SCF tolerance is set to 1.00e-08
    1   -1045.2091481173      9.20e-05     00000 
    2   -1045.2101177116      3.45e-05     00000 
    3   -1045.2102152449      1.87e-05     00000 
    4   -1045.2102338700      6.51e-06     00000 
    5   -1045.2102368106      3.58e-06     00000 
    6   -1045.2102378070      1.98e-06     00000 
    7   -1045.2102381065      9.41e-07     00000 
    8   -1045.2102381662      3.63e-07     00000 
    9   -1045.2102381711      1.79e-07     00000 
   10   -1045.2102381726      8.41e-08     00000 
   11   -1045.2102381731      4.58e-08     00000 
   12   -1045.2102381732      1.75e-08     00000 
   13   -1045.2102381733      7.78e-09     00000 Convergence criterion met
write pseudocanon occs and virts to disk
write pseudocanon orbital energies to disk
Timing for Total SCF: 462.00s (wall), 6323.13s (cpu)
<S^2> of polarized wavefunction after polarization iterations 0.0000000000
Doing General SCFMI
 Exchange:     0.1670 Hartree-Fock + 1.0000 wB97X-V + LR-HF
 Correlation:  1.0000 wB97X-V
 Using Euler-Maclaurin-Lebedev (99,590) quadrature formula
 Nonlocal Correlation:  VV10 with C = 0.0100 and b = 6.00 and scale = 1.00000
 Grid used for NLC:  SG-1 standard quadrature
performing fock build at end of subrot_r(subrot) constructor so that all methods have access
GDM subspace size: 20
    1       0.0016981443      1.96e-03     00000 Preconditoned Steepest Descent
    2       0.0152416071      5.86e-03     00000 LineSearch Step
    3       0.0000000030      2.62e-06     00000 BFGS Step
    4       0.0000000004      9.66e-07     00000 BFGS Step
    5       0.0000000019      2.09e-06     00000 LineSearch Step
    6       0.0000000000      3.00e-07     00000 BFGS Step
    7       0.0000000000      1.50e-08     00000 BFGS Step
GDM subspace size: 20
    1       0.0005380445      9.06e-04     00000 Preconditoned Steepest Descent
    2       0.0048400451      2.71e-03     00000 LineSearch Step
    3       0.0000000001      2.90e-07     00000 BFGS Step
    4       0.0000000000      8.64e-08     00000 BFGS Step
    5       0.0000000000      2.08e-07     00000 LineSearch Step
    6       0.0000000000      2.29e-08     00000 BFGS Step
    7       0.0000000000      7.26e-10     00000 BFGS Step
=========Fragment P Connection POL Analysis Result=========
P Connection Polarization Energy (kJ/mol)  : -2.861942
P Connection On-Fragment Charge Shift (me-): +2.009617
First Principle Polarization Energy (kJ/mol)  : -2.861942
First Principle On-Fragment Charge Shift (me-): +2.009617
___________________________________________________________
=========Fragment-wise P Connection POL Analysis=========
[Fragment 1]
E_1 (kJ/mol): -2.276719, Q_1 (me-): +1.536638
[Fragment 2]
E_2 (kJ/mol): -0.585222, Q_2 (me-): +0.472978
_________________________________________________________
==============================================================
           Fragment P Connection POL COVP Analysis            
==============================================================
Using user defined COVP significance threshold 1.000 (kJ/mol)
--------------------------------------------------------------
 D  A  dE (kJ/mol)  dE %    dQ (me-)  dQ %    idx(D)  idx(A)
 1  1   -1.8673     65.25   1.3037    64.87     1       2   
______________________________________________________________
relaxing scfmi constraint to allow all rotations in the entire AO span
Doing General SCFMI
 Exchange:     0.1670 Hartree-Fock + 1.0000 wB97X-V + LR-HF
 Correlation:  1.0000 wB97X-V
 Using Euler-Maclaurin-Lebedev (99,590) quadrature formula
 Nonlocal Correlation:  VV10 with C = 0.0100 and b = 6.00 and scale = 1.00000
 Grid used for NLC:  SG-1 standard quadrature
performing fock build at end of subrot_r(subrot) constructor so that all methods have access
<S^2> of polarized wavefunction before ct-allowed iterations 0.0000000000
Beginning iterations for the determination of the CT-Allowed wavefunction
Energy prior to optimization (guess energy) = -1045.210238173266
Begin Timing: Total SCF Calculation
begin iterations for algorithm: DIIS         
the SCF tolerance is set to 1.00e-08
    1   -1045.2102381733      1.56e-04     00000 
    2   -1045.2121499179      1.40e-05     00000 
    3   -1045.2122654898      3.76e-06     00000 
    4   -1045.2122753048      1.25e-06     00000 
    5   -1045.2122755594      4.55e-07     00000 
    6   -1045.2122756089      1.43e-07     00000 
    7   -1045.2122756122      4.06e-08     00000 
    8   -1045.2122756126      2.01e-08     00000 
    9   -1045.2122756127      3.94e-09     00000 Convergence criterion met
write pseudocanon occs and virts to disk
write pseudocanon orbital energies to disk
Timing for Total SCF: 280.00s (wall), 4056.12s (cpu)
<S^2> of ct_allowed wavefunction after ct-allowed iterations 0.0000000000
GDM subspace size: 20
    1       0.0040078465      1.14e-03     00000 Preconditoned Steepest Descent
    2       0.0358682789      3.39e-03     00000 LineSearch Step
    3       0.0000000281      3.01e-06     00000 BFGS Step
    4       0.0000000056      1.34e-06     00000 BFGS Step
    5       0.0000000199      2.54e-06     00000 LineSearch Step
    6       0.0000000007      4.69e-07     00000 BFGS Step
    7       0.0000000000      3.53e-08     00000 BFGS Step

==============Non-Perturbative CT Analysis Result===============
Non-Perturbative CT Energy (kJ/mol)   : -5.349296
Non-Perturbative Charge Transfer (me-): +4.007847
First Principle CT Energy (kJ/mol)    : -5.349296
First Principle Charge Transfer (me-) : +4.007847
_______________________________________________________________
========Fragment-wise Non-Perturbative CT Analysis=======
---Fragment-wise CT energies (row to col, kJ/mol)
			1			2
	1   -0.028850   -3.804975
	2   -1.508001   -0.007471
---Fragment-wise charge transfer (row to col, me-)
			1			2
	1   -0.092079    3.331314
	2    0.912835   -0.144223
_________________________________________________________
==============================================================
              Non-Perturbative CT COVP Analysis               
==============================================================
Using user defined COVP significance threshold 1.000 (kJ/mol)
--------------------------------------------------------------
 D  A  dE (kJ/mol)  dE %    dQ (me-)  dQ %    idx(D)  idx(A)
 1  2   -3.6384     68.02   3.2546    81.20     3       4   
______________________________________________________________
Done with restricted VCTA
Beginning cube_generation (with a 'new' $plots section):
The cube files of the following orbitals are generated: 
 1 2 3 4
Grid information in Angstroms:
 x:        100  min =  -6.597840 max =   8.625820
 y:        100  min =  -5.461280 max =   5.463400
 z:        100  min =  -4.516760 max =   4.819200
 Created directory /data/scratch/Me3SiH_ICF3_eda2_op1_wB97X-V_tzvppd20240529181418/plots

================================
        Results of EDA2         
================================
Basic EDA Quantities
--------------------
Fragment Energies (Ha):
1 -409.8390776942
2 -635.3686986384
--------------------
  E_prp (kJ/mol) = -0.0000
  E_frz (kJ/mol) = -3.6017
  E_pol (kJ/mol) = -2.8620
  E_vct (kJ/mol) = -5.3494
  E_int (kJ/mol) = -11.8130
--------------------


Decomposition of frozen interaction energy
--------------------
  --------------------
  Classical Frozen Decomposition:
  --------------------
     E_cls_elec  (CLS ELEC)  (kJ/mol) = -13.6104
     E_mod_pauli (MOD PAULI) (kJ/mol) = 24.9886 (FRZ - CLS ELEC - CLS DISP)
     E_cls_disp  (CLS DISP)  (kJ/mol) = -14.9798
  --------------------
--------------------

Simplified EDA Summary (kJ/mol)
--------------------
 PREPARATION      -0.0000
 FROZEN           -3.6017 (ELEC + PAULI + DISP)
[ELEC + PAULI = 11.3782, DISP = -14.9798]
 POLARIZATION    -2.8620
 CHARGE TRANSFER -5.3494
 TOTAL           -11.8130     (PRP + FRZ + POL + CT)
--------------------
 
 --------------------------------------------------------------
 
                    Orbital Energies (a.u.)
 --------------------------------------------------------------
 
 Alpha MOs
 -- Occupied --
-66.1191 -24.8164 -24.8164 -24.8163 -10.5659 -10.2544 -10.2534 -10.2534
 -6.9713  -5.3705  -5.0044  -4.9902  -4.9902  -3.7209  -3.7198  -3.7198
 -2.0576  -2.0531  -2.0531  -2.0411  -2.0411  -1.4736  -1.3813  -1.3813
 -0.8942  -0.8509  -0.8191  -0.8120  -0.8114  -0.7348  -0.7348  -0.6882
 -0.6080  -0.6080  -0.6015  -0.5706  -0.5706  -0.5467  -0.5348  -0.5220
 -0.5217  -0.5029  -0.5023  -0.4914  -0.4710  -0.4140  -0.4103  -0.4100
 -0.3873  -0.3870
 -- Virtual --
  0.0199   0.0515   0.0545   0.0566   0.0584   0.0820   0.0848   0.0870
  0.1080   0.1128   0.1213   0.1218   0.1257   0.1338   0.1344   0.1380
  0.1443   0.1495   0.1544   0.1677   0.1691   0.1751   0.1759   0.1774
  0.1791   0.1828   0.1848   0.1851   0.2019   0.2048   0.2049   0.2144
  0.2162   0.2202   0.2318   0.2342   0.2357   0.2459   0.2516   0.2543
  0.2559   0.2610   0.2752   0.2800   0.2882   0.2947   0.2974   0.3062
  0.3119   0.3191   0.3207   0.3237   0.3312   0.3344   0.3385   0.3388
  0.3433   0.3442   0.3558   0.3561   0.3630   0.3697   0.3772   0.3784
  0.3834   0.3848   0.3851   0.3923   0.3924   0.3975   0.4066   0.4073
  0.4149   0.4237   0.4273   0.4295   0.4315   0.4389   0.4410   0.4428
  0.4467   0.4534   0.4574   0.4747   0.4751   0.4784   0.4816   0.4884
  0.4910   0.4931   0.5059   0.5100   0.5165   0.5168   0.5261   0.5292
  0.5316   0.5373   0.5391   0.5459   0.5517   0.5562   0.5682   0.5812
  0.5871   0.5880   0.5962   0.6026   0.6129   0.6282   0.6323   0.6343
  0.6509   0.6566   0.6612   0.6650   0.6672   0.6775   0.6853   0.6966
  0.6969   0.7135   0.7169   0.7221   0.7286   0.7370   0.7403   0.7459
  0.7488   0.7524   0.7640   0.7653   0.7769   0.7859   0.7959   0.8000
  0.8024   0.8082   0.8134   0.8240   0.8250   0.8288   0.8345   0.8387
  0.8411   0.8614   0.8648   0.8696   0.8852   0.8873   0.8955   0.9124
  0.9188   0.9255   0.9283   0.9472   0.9571   0.9642   0.9647   0.9832
  0.9900   0.9991   1.0035   1.0061   1.0076   1.0175   1.0480   1.0519
  1.0679   1.0688   1.0733   1.1001   1.1314   1.1405   1.1480   1.1488
  1.1555   1.1607   1.1647   1.1765   1.1776   1.1858   1.2033   1.2787
  1.2805   1.2836   1.2868   1.2935   1.2951   1.3025   1.3061   1.3064
  1.3147   1.3148   1.3197   1.3272   1.3349   1.3449   1.3479   1.3557
  1.3744   1.3835   1.3854   1.4041   1.4164   1.4462   1.4522   1.4563
  1.4654   1.4736   1.4823   1.4826   1.4984   1.5078   1.5110   1.5240
  1.5278   1.5428   1.5708   1.5719   1.5837   1.6213   1.6349   1.6456
  1.6456   1.6538   1.6592   1.6778   1.6853   1.7096   1.7116   1.7168
  1.7268   1.7515   1.7579   1.7632   1.7896   1.7936   1.8166   1.8342
  1.8386   1.8403   1.8494   1.8627   1.9036   1.9057   1.9500   1.9665
  1.9949   2.0113   2.0143   2.0270   2.1443   2.1492   2.1505   2.1575
  2.1612   2.1709   2.1918   2.2316   2.2682   2.2705   2.3297   2.3484
  2.3582   2.3876   2.3925   2.4351   2.4512   2.5110   2.5554   2.5600
  2.5772   2.6086   2.6639   2.6682   2.6938   2.7707   2.8967   2.8974
  2.8994   2.9090   2.9175   2.9541   2.9545   2.9630   2.9657   2.9731
  2.9782   2.9874   2.9905   2.9932   2.9993   3.0210   3.0225   3.0385
  3.0591   3.0664   3.0826   3.1192   3.1196   3.1502   3.1523   3.1575
  3.1751   3.1793   3.1800   3.1829   3.1958   3.1975   3.2091   3.2129
  3.2481   3.2501   3.2850   3.3160   3.3216   3.3388   3.3409   3.3448
  3.3924   3.3935   3.3965   3.4035   3.4298   3.4351   3.4741   3.4997
  3.5037   3.5105   3.5170   3.5176   3.5344   3.5388   3.5770   3.5852
  3.5900   3.6097   3.6130   3.6184   3.6349   3.6354   3.6635   3.6737
  3.6760   3.6896   3.7044   3.7130   3.7199   3.7402   3.7598   3.7823
  3.8231   3.8258   3.8331   3.8526   3.8555   3.8867   3.9563   3.9653
  3.9703   3.9779   4.0117   4.0179   4.0259   4.0383   4.0603   4.0636
  4.0912   4.0943   4.1014   4.1274   4.1388   4.1538   4.1660   4.1683
  4.2170   4.2424   4.2491   4.2492   4.2751   4.2828   4.2861   4.2994
  4.3133   4.3232   4.3612   4.3770   4.4045   4.4051   4.4084   4.4185
  4.4282   4.4361   4.4704   4.4768   4.4932   4.6767   4.6784   4.6936
  4.7100   4.7108   4.7244   4.7293   4.7788   4.8195   4.8209   4.8465
  4.9726   4.9748   5.1393   5.1582   5.1584   5.1885   5.1886   5.2130
  5.2323   5.2325   5.2737   5.2854   5.2929   5.2966   5.3583   5.3776
  5.3813   5.3872   5.4092   5.4096   5.4489   5.4533   5.4638   5.5011
  5.5018   5.5355   5.5762   5.5807   5.5915   5.7811   5.7924   5.7957
  5.8114   5.8239   5.8270   6.8877   6.8987   6.9171   6.9246   6.9247
  6.9309   6.9312   6.9342   6.9442   6.9443   6.9459   7.0022   7.0782
  7.0782   7.1146   7.2237   7.2241   7.2376   7.4459   7.4472   7.5061
  7.6597   7.6967   7.6976   8.5297   8.5326   8.5354   8.6489   8.6502
  8.6972   8.8305   8.8443   8.8445   8.9298   9.1504   9.1520   9.2477
  9.4231   9.4262  12.3482  22.8920  23.6315  23.6327  23.6465  34.7614
 34.8023  35.0122  43.2415  57.3733  57.4053  57.4630 118.4331
 --------------------------------------------------------------
 
          Ground-State Mulliken Net Atomic Charges

     Atom                 Charge (a.u.)
  ----------------------------------------
      1 C                    -0.183815
      2 Si                    0.073169
      3 C                    -0.191910
      4 C                    -0.183732
      5 H                    -0.170211
      6 H                     0.059467
      7 H                     0.084585
      8 H                     0.065809
      9 H                     0.065332
     10 H                     0.065334
     11 H                     0.081757
     12 H                     0.065737
     13 H                     0.084612
     14 H                     0.059459
     15 I                     0.033764
     16 C                     0.457727
     17 F                    -0.157806
     18 F                    -0.151469
     19 F                    -0.157809
  ----------------------------------------
  Sum of atomic charges =     0.000000

 -----------------------------------------------------------------
                    Cartesian Multipole Moments
 -----------------------------------------------------------------
    Charge (ESU x 10^10)
                -0.0000
    Dipole Moment (Debye)
         X       2.0271      Y       0.0010      Z       0.1774
       Tot       2.0348
    Quadrupole Moments (Debye-Ang)
        XX     -81.1472     XY       0.0004     YY     -83.6279
        XZ       0.9622     YZ      -0.0008     ZZ     -83.7821
    Octopole Moments (Debye-Ang^2)
       XXX     -79.9872    XXY       0.1199    XYY     -31.9467
       YYY       0.2441    XXZ       1.0035    XYZ       0.0010
       YYZ      -9.1202    XZZ     -31.9304    YZZ       0.1399
       ZZZ     -12.2497
    Hexadecapole Moments (Debye-Ang^3)
      XXXX   -4008.9481   XXXY      -0.4253   XXYY    -738.8027
      XYYY      -0.6552   YYYY    -432.8217   XXXZ      36.6389
      XXYZ       0.0337   XYYZ     -11.5664   YYYZ       0.1142
      XXZZ    -726.6901   XYZZ      -0.1068   YYZZ    -136.0097
      XZZZ       0.0519   YZZZ       0.1525   ZZZZ    -370.3621
 -----------------------------------------------------------------
 Total job time:  2679.35s(wall), 19111.02s(cpu) 
 Wed May 29 18:58:58 2024

        *************************************************************
        *                                                           *
        *  Thank you very much for using Q-Chem.  Have a nice day.  *
        *                                                           *
        *************************************************************


