
Running Job 1 of 1 Me3SiH_BrCN_eda2_op1_wB97X-V_tzvppd.in
qchem Me3SiH_BrCN_eda2_op1_wB97X-V_tzvppd.in_113488.0 /data/scratch/Me3SiH_BrCN_eda2_op1_wB97X-V_tzvppd20240529181418/ 1
/opt/qchem/6.1/exe/qcprog.exe_s Me3SiH_BrCN_eda2_op1_wB97X-V_tzvppd.in_113488.0 /data/scratch/Me3SiH_BrCN_eda2_op1_wB97X-V_tzvppd20240529181418/
                  Welcome to Q-Chem
     A Quantum Leap Into The Future Of Chemistry


 Q-Chem 6.1, Q-Chem, Inc., Pleasanton, CA (2023)

 E. Epifanovsky,  A. T. B. Gilbert,  Xintian Feng,  Joonho Lee,  Yuezhi Mao,  
 N. Mardirossian,  P. Pokhilko,  A. White,  M. Wormit,  M. P. Coons,  
 A. L. Dempwolff,  Zhengting Gan,  D. Hait,  P. R. Horn,  L. D. Jacobson,  
 I. Kaliman,  J. Kussmann,  A. W. Lange,  Ka Un Lao,  D. S. Levine,  Jie Liu,  
 S. C. McKenzie,  A. F. Morrison,  K. D. Nanda,  F. Plasser,  D. R. Rehn,  
 M. L. Vidal,  Zhi-Qiang You,  Ying Zhu,  B. Alam,  B. Albrecht,  
 A. Aldossary,  E. Alguire,  J. H. Andersen,  V. Athavale,  D. Barton,  
 K. Begam,  A. Behn,  N. Bellonzi,  Y. A. Bernard,  E. J. Berquist,  
 H. Burton,  A. Carreras,  K. Carter-Fenk,  Mathew Chow,  Romit Chakraborty,  
 Chandrima Chakravarty,  Junhan Chen,  A. D. Chien,  K. D. Closser,  
 V. Cofer-Shabica,  L. Cunha,  S. Dasgupta,  Jia Deng,  M. de Wergifosse,  
 M. Diedenhofen,  Hainam Do,  S. Ehlert,  Po-Tung Fang,  S. Fatehi,  
 Qingguo Feng,  T. Friedhoff,  Thomas Froitzheim,  B. Ganoe,  J. Gayvert,  
 Qinghui Ge,  G. Gidofalvi,  M. Gimferrer,  M. Goldey,  Montgomery Gray,  
 J. Gomes,  C. Gonzalez-Espinoza,  S. Gulania,  A. Gunina,  J. A. Gyamfi,  
 M. W. D. Hanson-Heine,  P. H. P. Harbach,  A. W. Hauser,  M. F. Herbst,  
 M. Hernandez Vera,  M. Hodecker,  Z. C. Holden,  S. Houck,  Xunkun Huang,  
 Kerwin Hui,  B. C. Huynh,  K. Ikeda,  M. Ivanov,  Hyunjun Ji,  Zuxin Jin,  
 Hanjie Jiang,  Subrata Jana,  B. Kaduk,  S. Kaehler,  R. Kang,  
 K. Khistyaev,  Jaehoon Kim,  Yongbin Kim,  P. Klunzinger,  Z. Koczor-Benda,  
 Joong Hoon Koh,  D. Kosenkov,  Saikiran Kotaru,  L. Koulias,  T. Kowalczyk,  
 C. M. Krauter,  K. Kue,  A. Kunitsa,  T. Kus,  A. Landau,  K. V. Lawler,  
 D. Lefrancois,  S. Lehtola,  Rain Li,  Shaozhi Li,  Yi-Pei Li,  
 Jiashu Liang,  M. Liebenthal,  Hung-Hsuan Lin,  You-Sheng Lin,  Fenglai Liu,  
 Kuan-Yu Liu,  Xiao Liu,  M. Loipersberger,  A. Luenser,  C. Malbon,  
 A. Manjanath,  P. Manohar,  E. Mansoor,  S. F. Manzer,  Shan-Ping Mao,  
 A. V. Marenich,  T. Markovich,  S. Mason,  F. Matz,  S. A. Maurer,  
 P. F. McLaughlin,  M. F. S. J. Menger,  J.-M. Mewes,  S. A. Mewes,  
 P. Morgante,  Mohammad Mostafanejad,  J. W. Mullinax,  K. J. Oosterbaan,  
 G. Paran,  V. Parravicini,  Alexander C. Paul,  Suranjan K. Paul,  
 F. Pavosevic,  Zheng Pei,  S. Prager,  E. I. Proynov,  E. Ramos,  B. Rana,  
 A. E. Rask,  A. Rettig,  R. M. Richard,  F. Rob,  E. Rossomme,  T. Scheele,  
 M. Scheurer,  M. Schneider,  P. E. Schneider,  Tim K. Schramm,  N. Sergueev,  
 S. M. Sharada,  M. Sharma,  Hengyuan Shen,  W. Skomorowski,  D. W. Small,  
 C. J. Stein,  Alistair J. Sterling,  Yingli Su,  Yu-Chuan Su,  
 E. J. Sundstrom,  J. Talbot,  Zhen Tao,  J. Thirman,  Hung-Yi Tsai,  
 T. Tsuchimochi,  N. M. Tubman,  C. Utku,  S. P. Veccham,  O. Vydrov,  
 J. Wenzel,  Jonathan Wong,  J. Witte,  A. Yamada,  Chou-Hsun Yang,  Kun Yao,  
 S. Yeganeh,  S. R. Yost,  A. Zech,  F. Zeller,  Igor Ying Zhang,  
 Xing Zhang,  Yu Zhang,  D. Zuev,  A. Aspuru-Guzik,  A. T. Bell,  
 N. A. Besley,  K. B. Bravaya,  B. R. Brooks,  D. Casanova,  Jeng-Da Chai,  
 Hsing-Ta Chen,  S. Coriani,  C. J. Cramer,  A. E. DePrince, III,  
 R. A. DiStasio Jr.,  A. Dreuw,  B. D. Dunietz,  T. R. Furlani,  
 W. A. Goddard III,  S. Grimme,  S. Hammes-Schiffer,  T. Head-Gordon,  
 W. J. Hehre,  Chao-Ping Hsu,  T.-C. Jagau,  Yousung Jung,  A. Klamt,  
 Jing Kong,  D. S. Lambrecht,  Xiangyuan Li,  WanZhen Liang,  N. J. Mayhall,  
 C. W. McCurdy,  J. B. Neaton,  T. Neudecker,  C. Ochsenfeld,  
 J. A. Parkhill,  R. Peverati,  V. A. Rassolov,  Haisheng Ren,  Yihan Shao,  
 L. V. Slipchenko,  R. P. Steele,  J. E. Subotnik,  A. J. W. Thom,  
 A. Tkatchenko,  D. G. Truhlar,  T. Van Voorhis,  Fan Wang,  
 T. A. Wesolowski,  K. B. Whaley,  H. L. Woodcock III,  P. M. Zimmerman,  
 S. Faraji,  P. M. W. Gill,  M. Head-Gordon,  J. M. Herbert,  A. I. Krylov

 Contributors to earlier versions of Q-Chem not listed above: 
 R. D. Adamson,  B. Austin,  R. Baer,  J. Baker,  G. J. O. Beran,  
 K. Brandhorst,  S. T. Brown,  E. F. C. Byrd,  Arup K. Chakraborty,  
 G. K. L. Chan,  Chun-Min Chang,  Yunqing Chen,  C.-L. Cheng,  
 Siu Hung Chien,  D. M. Chipman,  D. L. Crittenden,  H. Dachsel,  
 R. J. Doerksen,  A. D. Dutoi,  R. G. Edgar,  J. Fosso-Tande,  
 L. Fusti-Molnar,  D. Ghosh,  A. Ghysels,  A. Golubeva-Zadorozhnaya,  
 J. Gonthier,  M. S. Gordon,  S. R. Gwaltney,  G. Hawkins,  J. E. Herr,  
 A. Heyden,  S. Hirata,  E. G. Hohenstein,  G. Kedziora,  F. J. Keil,  
 C. Kelley,  Jihan Kim,  R. A. King,  R. Z. Khaliullin,  P. P. Korambath,  
 W. Kurlancheek,  A. Laurent,  A. M. Lee,  M. S. Lee,  S. V. Levchenko,  
 Ching Yeh Lin,  D. Liotard,  E. Livshits,  R. C. Lochan,  I. Lotan,  
 L. A. Martinez-Martinez,  P. E. Maslen,  N. Nair,  D. P. O'Neill,  
 D. Neuhauser,  E. Neuscamman,  C. M. Oana,  R. Olivares-Amaya,  R. Olson,  
 T. M. Perrine,  B. Peters,  P. A. Pieniazek,  A. Prociuk,  Y. M. Rhee,  
 J. Ritchie,  M. A. Rohrdanz,  E. Rosta,  N. J. Russ,  H. F. Schaefer III,  
 M. W. Schmidt,  N. E. Schultz,  S. Sharma,  N. Shenvi,  C. D. Sherrill,  
 A. C. Simmonett,  A. Sodt,  T. Stein,  D. Stuck,  K. S. Thanthiriwatte,  
 V. Vanovschi,  L. Vogt,  Tao Wang,  A. Warshel,  M. A. Watson,  
 C. F. Williams,  Q. Wu,  X. Xu,  Jun Yang,  W. Zhang,  Yan Zhao

   Please cite Q-Chem as follows:
  "Software for the frontiers of quantum chemistry:
   An overview of developments in the Q-Chem 5 package"
   J. Chem. Phys. 155, 084801 (2021)
   https://doi.org/10.1063/5.0055522 (open access)

 Q-Chem 6.1.1 for Intel X86 EM64T Linux

 Parts of Q-Chem use Armadillo 9.900.5 (Nocturnal Misbehaviour).
 http://arma.sourceforge.net/

 Q-Chem begins on Wed May 29 18:14:19 2024  

 Host: 
0

     Scratch files written to /data/scratch/Me3SiH_BrCN_eda2_op1_wB97X-V_tzvppd20240529181418//
 Jan1824 |scratch|qcdevops|jenkins|workspace|build_RNUM -1
 Processing $rem in /opt/qchem/6.1/config/preferences:
 Processing $rem in /home/ymao/.qchemrc:

 Q-Chem warning in module libgen/rem_setup.C, line 3361:

 Neither GIA nor STOLL is specified by user. Use STOLL as the default


 Checking the input file for inconsistencies... 	...done.

--------------------------------------------------------------
User input:
--------------------------------------------------------------
$molecule
0 1
--
0 1
H    1.14950    0.00107    1.18854
Si   2.17975    0.00039    0.08841
C    3.88313    0.00175    0.88886
C    1.92615    -1.54897   -0.95234
C    1.92508    1.54757    -0.95530
H    4.02781    0.89256    1.52061
H    4.67490    0.00132    0.12166
H    4.02845    -0.88778   1.52227
H    2.02349    -2.46250   -0.34404
H    0.92908    -1.56142   -1.42116
H    2.67431    -1.60301   -1.76029
H    0.92805    1.55836    -1.42427
H    2.02164    2.46233    -0.34873
H    2.67329    1.60065    -1.76326
--
0 1
Br   -1.53983   -0.00030   0.38107
C    -3.22135   -0.00114   -0.24704
N    -4.30510   -0.00173   -0.65258
$end

$rem
JOBTYPE  EDA
EDA2  1
METHOD  WB97X-V
BASIS  DEF2-TZVPPD
SYMMETRY  FALSE
SYM_IGNORE  TRUE
MEM_TOTAL  8000
MEM_STATIC  2000
BASIS_LIN_DEP_THRESH  6
THRESH  14
SCF_CONVERGENCE  8
GEN_SCFMAN  TRUE
MAXSCF  200
FD_MAT_VEC_PROD  FALSE
XC_GRID  000099000590
NL_GRID  1
SCF_GUESS  FRAGMO
FRZ_ORTHO_DECOMP  -1
EDA_CLS_DISP  TRUE
EDA_POL_A  TRUE
EDA_VCT_A  TRUE
EDA_SAVE_COVP  TRUE
EDA_COVP_THRESH  1000
MAKE_CUBE_FILES  TRUE
PLOTS  TRUE
$end

$plots
grid_points 100 100 100
$end
--------------------------------------------------------------
 ----------------------------------------------------------------
             Standard Nuclear Orientation (Angstroms)
    I     Atom           X                Y                Z
 ----------------------------------------------------------------
    1      H       1.1495000000     0.0010700000     1.1885400000
    2      Si      2.1797500000     0.0003900000     0.0884100000
    3      C       3.8831300000     0.0017500000     0.8888600000
    4      C       1.9261500000    -1.5489700000    -0.9523400000
    5      C       1.9250800000     1.5475700000    -0.9553000000
    6      H       4.0278100000     0.8925600000     1.5206100000
    7      H       4.6749000000     0.0013200000     0.1216600000
    8      H       4.0284500000    -0.8877800000     1.5222700000
    9      H       2.0234900000    -2.4625000000    -0.3440400000
   10      H       0.9290800000    -1.5614200000    -1.4211600000
   11      H       2.6743100000    -1.6030100000    -1.7602900000
   12      H       0.9280500000     1.5583600000    -1.4242700000
   13      H       2.0216400000     2.4623300000    -0.3487300000
   14      H       2.6732900000     1.6006500000    -1.7632600000
   15      Br     -1.5398300000    -0.0003000000     0.3810700000
   16      C      -3.2213500000    -0.0011400000    -0.2470400000
   17      N      -4.3051000000    -0.0017300000    -0.6525800000
 ----------------------------------------------------------------
 Nuclear Repulsion Energy =         533.22745808 hartrees
 There are       45 alpha and       45 beta electrons
 Requested basis set is def2-TZVPPD
 There are 170 shells and 460 basis functions

 Total QAlloc Memory Limit   8000 MB
 Mega-Array Size      1956 MB
 MEM_STATIC part      2000 MB

 A cutoff of  1.0D-14 yielded  12519 shell pairs
 There are     90607 function pairs (    112758 Cartesian)
 Smallest overlap matrix eigenvalue = 2.10E-05

 Scale SEOQF with 1.000000e-01/1.000000e-01/1.000000e-01

 Standard Electronic Orientation quadrupole field applied
 Nucleus-field energy     =     0.0000000192 hartrees

 -----------------------------------------------------------------------
  General SCF calculation program by
  Eric Jon Sundstrom, Paul Horn, Yuezhi Mao, Dmitri Zuev, Alec White,
  David Stuck, Shaama M.S., Shane Yost, Joonho Lee, David Small,
  Daniel Levine, Susi Lehtola, Hugh Burton, Evgeny Epifanovsky,
  Bang C. Huynh
 -----------------------------------------------------------------------
================================================================
                 ALMO-EDA with the EDA2 driver                  
================================================================
 The second-generation ALMO-EDA (for DFT):                      
 P. R. Horn, Y. Mao and M. Head-Gordon, PCCP, 18, 23067 (2016)  
 Y. Mao et al. Annu. Rev. Phys. Chem. 72, 641 (2021)            
 Decomposition of the frozen energy:                            
 P. R. Horn, Y. Mao and M. Head-Gordon, JCP, 144, 114107 (2016) 
 FERF model for polarization:                                   
 P. R. Horn and M. Head-Gordon, JCP, 143, 114111 (2015)         
================================================================
 Using eda2 option set 1
 Option set summary: Frozen orbital wavefunction, initial wavefunction decomposition, and nDQ polarization.
--------------------------------
Printing EDA Options
--------------------------------
eda_child_super_basis      0
fragmo_guess_mode          0
child_mp                   1
child_mp_orders            232
cls_elec                   1
cls_disp                   1
scfmi_mode                 1
scfmi_occs                 0
scfmi_virts                0
frz_relax                  0
frz_relax_method           0
dc_pen_start               0
dc_pen_conv                0
dc_pen_increment           0
dc_pen_steps               0
dc_pen_thresh_factor       0
dc_pen_pre_newton_thresh   0
frz_ortho_decomp           0
frz_ortho_decomp_conv      6
plot_mo_ortho_frz          0
frgm_method                2
scfmi_freeze_ss            0
separate_rehyb             0
plot_diff_den              0
eda_nocv                   0
eda_vct_relax              1
disp_free_x                0
disp_free_c                0
eda_bsse                   0
eda_pct_a                  0
eda_covp                   0
eda_vct_a                  1
--------------------------------
 Attempting to make child job directory: /data/scratch/Me3SiH_BrCN_eda2_op1_wB97X-V_tzvppd20240529181418//Frg1/
 Attempting to make child job directory: /data/scratch/Me3SiH_BrCN_eda2_op1_wB97X-V_tzvppd20240529181418//Frg2/
 Creating input file /data/scratch/Me3SiH_BrCN_eda2_op1_wB97X-V_tzvppd20240529181418/Frg1.input
 using default PutDataFrgm: nothing
 calling putenv with: QCSCRATCH=/data/scratch/Me3SiH_BrCN_eda2_op1_wB97X-V_tzvppd20240529181418/ 
 Spawning Job For Fragment 0
 Done Job For Fragment 0
 calling putenv with: QCSCRATCH=/data/scratch 
 calling putenv with: QCTHREADS=16 
 Creating input file /data/scratch/Me3SiH_BrCN_eda2_op1_wB97X-V_tzvppd20240529181418/Frg2.input
 using default PutDataFrgm: nothing
 calling putenv with: QCSCRATCH=/data/scratch/Me3SiH_BrCN_eda2_op1_wB97X-V_tzvppd20240529181418/ 
 Spawning Job For Fragment 1
 Done Job For Fragment 1
 calling putenv with: QCSCRATCH=/data/scratch 
 calling putenv with: QCTHREADS=16 
Doing General SCFMI
 Exchange:     0.1670 Hartree-Fock + 1.0000 wB97X-V + LR-HF
 Correlation:  1.0000 wB97X-V
 Using Euler-Maclaurin-Lebedev (99,590) quadrature formula
 Nonlocal Correlation:  VV10 with C = 0.0100 and b = 6.00 and scale = 1.00000
 Grid used for NLC:  SG-1 standard quadrature
performing fock build before subrot guess so that all methods have access
Printing subrot_rss_gen Method Specification:
Occupied Subspace Method is 0
Virtual Subspace Method is 0
Energy of the unrelaxed supersystem initial determinant -3076.582426700078
write pseudocanon occs and virts to disk
write pseudocanon orbital energies to disk
 Exchange:     0.1670 Hartree-Fock + 1.0000 wB97X-V + LR-HF
 Correlation:  1.0000 wB97X-V
 Using Euler-Maclaurin-Lebedev (99,590) quadrature formula
 Nonlocal Correlation:  VV10 with C = 0.0100 and b = 6.00 and scale = 1.00000
 Grid used for NLC:  SG-1 standard quadrature
 Long-range K will be added via erf
 Coulomb attenuation parameter = 0.3 bohr**(-1)
 Nonlocal correlation = 0.363478734381
 Hartree-Fock
Doing General SCFMI
 Exchange:     0.1670 Hartree-Fock + 1.0000 wB97X-V + LR-HF
 Correlation:  1.0000 wB97X-V
 Using Euler-Maclaurin-Lebedev (99,590) quadrature formula
 Nonlocal Correlation:  VV10 with C = 0.0100 and b = 6.00 and scale = 1.00000
 Grid used for NLC:  SG-1 standard quadrature
performing fock build at end of subrot_r(subrot) constructor so that all methods have access
<S^2> of initial wavefunction before polarization iterations 0.0000000000
Beginning iterations for the determination of the polarized wavefunction
Energy prior to optimization (guess energy) = -3076.582426700077
Begin Timing: Total SCF Calculation
begin iterations for algorithm: DIIS         
the SCF tolerance is set to 1.00e-08
    1   -3076.5824267001      1.20e-04     00000 
    2   -3076.5833489211      4.93e-05     00000 
    3   -3076.5834387650      2.71e-05     00000 
    4   -3076.5834572592      1.58e-05     00000 
    5   -3076.5834601949      1.20e-05     00000 
    6   -3076.5834623937      5.86e-06     00000 
    7   -3076.5834627462      1.89e-06     00000 
    8   -3076.5834627973      6.26e-07     00000 
    9   -3076.5834628266      2.96e-07     00000 
   10   -3076.5834628356      1.26e-07     00000 
   11   -3076.5834628372      4.81e-08     00000 
   12   -3076.5834628373      1.51e-08     00000 
   13   -3076.5834628373      6.97e-09     00000 Convergence criterion met
write pseudocanon occs and virts to disk
write pseudocanon orbital energies to disk
Timing for Total SCF: 286.00s (wall), 3778.71s (cpu)
<S^2> of polarized wavefunction after polarization iterations 0.0000000000
Doing General SCFMI
 Exchange:     0.1670 Hartree-Fock + 1.0000 wB97X-V + LR-HF
 Correlation:  1.0000 wB97X-V
 Using Euler-Maclaurin-Lebedev (99,590) quadrature formula
 Nonlocal Correlation:  VV10 with C = 0.0100 and b = 6.00 and scale = 1.00000
 Grid used for NLC:  SG-1 standard quadrature
performing fock build at end of subrot_r(subrot) constructor so that all methods have access
GDM subspace size: 20
    1       0.0016778659      1.95e-03     00000 Preconditoned Steepest Descent
    2       0.0150649776      5.83e-03     00000 LineSearch Step
    3       0.0000000023      2.30e-06     00000 BFGS Step
    4       0.0000000004      9.84e-07     00000 BFGS Step
    5       0.0000000016      1.92e-06     00000 LineSearch Step
    6       0.0000000000      3.36e-07     00000 BFGS Step
    7       0.0000000000      2.31e-08     00000 BFGS Step
GDM subspace size: 20
    1       0.0003270524      1.01e-03     00000 Preconditoned Steepest Descent
    2       0.0029425138      3.03e-03     00000 LineSearch Step
    3       0.0000000000      2.50e-07     00000 BFGS Step
    4       0.0000000000      7.66e-08     00000 BFGS Step
    5       0.0000000000      1.82e-07     00000 LineSearch Step
    6       0.0000000000      2.08e-08     00000 BFGS Step
    7       0.0000000000      6.99e-10     00000 BFGS Step
=========Fragment P Connection POL Analysis Result=========
P Connection Polarization Energy (kJ/mol)  : -2.720378
P Connection On-Fragment Charge Shift (me-): +1.774610
First Principle Polarization Energy (kJ/mol)  : -2.720378
First Principle On-Fragment Charge Shift (me-): +1.774610
___________________________________________________________
=========Fragment-wise P Connection POL Analysis=========
[Fragment 1]
E_1 (kJ/mol): -2.259154, Q_1 (me-): +1.480414
[Fragment 2]
E_2 (kJ/mol): -0.461224, Q_2 (me-): +0.294196
_________________________________________________________
==============================================================
           Fragment P Connection POL COVP Analysis            
==============================================================
Using user defined COVP significance threshold 1.000 (kJ/mol)
--------------------------------------------------------------
 D  A  dE (kJ/mol)  dE %    dQ (me-)  dQ %    idx(D)  idx(A)
 1  1   -1.6620     61.10   1.1594    65.33     1       2   
______________________________________________________________
relaxing scfmi constraint to allow all rotations in the entire AO span
Doing General SCFMI
 Exchange:     0.1670 Hartree-Fock + 1.0000 wB97X-V + LR-HF
 Correlation:  1.0000 wB97X-V
 Using Euler-Maclaurin-Lebedev (99,590) quadrature formula
 Nonlocal Correlation:  VV10 with C = 0.0100 and b = 6.00 and scale = 1.00000
 Grid used for NLC:  SG-1 standard quadrature
performing fock build at end of subrot_r(subrot) constructor so that all methods have access
<S^2> of polarized wavefunction before ct-allowed iterations 0.0000000000
Beginning iterations for the determination of the CT-Allowed wavefunction
Energy prior to optimization (guess energy) = -3076.583462837326
Begin Timing: Total SCF Calculation
begin iterations for algorithm: DIIS         
the SCF tolerance is set to 1.00e-08
    1   -3076.5834628373      1.81e-04     00000 
    2   -3076.5850655966      1.54e-05     00000 
    3   -3076.5851603798      4.10e-06     00000 
    4   -3076.5851677506      2.44e-06     00000 
    5   -3076.5851682915      6.91e-07     00000 
    6   -3076.5851683594      2.18e-07     00000 
    7   -3076.5851683663      4.98e-08     00000 
    8   -3076.5851683668      1.79e-08     00000 
    9   -3076.5851683669      4.32e-09     00000 Convergence criterion met
write pseudocanon occs and virts to disk
write pseudocanon orbital energies to disk
Timing for Total SCF: 181.00s (wall), 2512.30s (cpu)
<S^2> of ct_allowed wavefunction after ct-allowed iterations 0.0000000000
GDM subspace size: 20
    1       0.0031980789      1.17e-03     00000 Preconditoned Steepest Descent
    2       0.0286362016      3.48e-03     00000 LineSearch Step
    3       0.0000000185      2.82e-06     00000 BFGS Step
    4       0.0000000028      1.10e-06     00000 BFGS Step
    5       0.0000000122      2.29e-06     00000 LineSearch Step
    6       0.0000000003      3.54e-07     00000 BFGS Step
    7       0.0000000000      2.00e-08     00000 BFGS Step

==============Non-Perturbative CT Analysis Result===============
Non-Perturbative CT Energy (kJ/mol)   : -4.477867
Non-Perturbative Charge Transfer (me-): +3.198079
First Principle CT Energy (kJ/mol)    : -4.477867
First Principle Charge Transfer (me-) : +3.198079
_______________________________________________________________
========Fragment-wise Non-Perturbative CT Analysis=======
---Fragment-wise CT energies (row to col, kJ/mol)
			1			2
	1   -0.048096   -3.305293
	2   -1.119182   -0.005296
---Fragment-wise charge transfer (row to col, me-)
			1			2
	1   -0.053173    2.862205
	2    0.462015   -0.072968
_________________________________________________________
==============================================================
              Non-Perturbative CT COVP Analysis               
==============================================================
Using user defined COVP significance threshold 1.000 (kJ/mol)
--------------------------------------------------------------
 D  A  dE (kJ/mol)  dE %    dQ (me-)  dQ %    idx(D)  idx(A)
 1  2   -3.1016     69.26   2.7658    86.48     3       4   
______________________________________________________________
Done with restricted VCTA
Beginning cube_generation (with a 'new' $plots section):
The cube files of the following orbitals are generated: 
 1 2 3 4
Grid information in Angstroms:
 x:        100  min =  -7.305100 max =   7.674900
 y:        100  min =  -5.462500 max =   5.462330
 z:        100  min =  -4.763260 max =   4.522270
 Created directory /data/scratch/Me3SiH_BrCN_eda2_op1_wB97X-V_tzvppd20240529181418/plots

================================
        Results of EDA2         
================================
Basic EDA Quantities
--------------------
Fragment Energies (Ha):
1 -409.8390717117
2-2666.7419269549
--------------------
  E_prp (kJ/mol) = 0.0000
  E_frz (kJ/mol) = -3.7493
  E_pol (kJ/mol) = -2.7204
  E_vct (kJ/mol) = -4.4779
  E_int (kJ/mol) = -10.9477
--------------------


Decomposition of frozen interaction energy
--------------------
  --------------------
  Classical Frozen Decomposition:
  --------------------
     E_cls_elec  (CLS ELEC)  (kJ/mol) = -12.0101
     E_mod_pauli (MOD PAULI) (kJ/mol) = 20.8830 (FRZ - CLS ELEC - CLS DISP)
     E_cls_disp  (CLS DISP)  (kJ/mol) = -12.6223
  --------------------
--------------------

Simplified EDA Summary (kJ/mol)
--------------------
 PREPARATION      0.0000
 FROZEN           -3.7493 (ELEC + PAULI + DISP)
[ELEC + PAULI = 8.8729, DISP = -12.6223]
 POLARIZATION    -2.7204
 CHARGE TRANSFER -4.4779
 TOTAL           -10.9477     (PRP + FRZ + POL + CT)
--------------------
 
 --------------------------------------------------------------
 
                    Orbital Energies (a.u.)
 --------------------------------------------------------------
 
 Alpha MOs
 -- Occupied --
 -482.72668   -66.12397   -62.59965   -56.40644   -56.40174   -56.40172
  -14.43307   -10.35862   -10.25850   -10.25842   -10.25841    -8.86842
   -6.70102    -6.68585    -6.68582    -5.37542    -3.72580    -3.72468
   -3.72465    -2.82233    -2.81782    -2.81779    -2.80594    -2.80594
   -1.06594    -0.98647    -0.85563    -0.81654    -0.81643    -0.65513
   -0.60401    -0.53899    -0.52876    -0.52636    -0.52097    -0.51870
   -0.50665    -0.50660    -0.49695    -0.49610    -0.42292    -0.42169
   -0.42145    -0.41524    -0.41467
 -- Virtual --
    0.04108     0.05394     0.06075     0.06192     0.06948     0.08449
    0.08869     0.09264     0.09419     0.09650     0.11637     0.11800
    0.12302     0.13303     0.13405     0.14994     0.15579     0.16225
    0.16387     0.16507     0.17587     0.17865     0.17865     0.19073
    0.19428     0.19874     0.20931     0.21065     0.21569     0.22187
    0.24097     0.24152     0.24855     0.25316     0.26528     0.26588
    0.27717     0.27762     0.28090     0.28638     0.29581     0.30184
    0.30738     0.31542     0.31917     0.32079     0.32811     0.33286
    0.33667     0.33740     0.34099     0.34861     0.35661     0.35758
    0.35916     0.36775     0.37129     0.37780     0.38269     0.38813
    0.38942     0.39306     0.39559     0.41127     0.42441     0.42632
    0.42968     0.44022     0.45498     0.45535     0.46082     0.46099
    0.47184     0.47394     0.48114     0.48439     0.49516     0.49646
    0.50811     0.51359     0.51574     0.51948     0.52039     0.52678
    0.52793     0.53217     0.53917     0.54114     0.55112     0.55511
    0.56407     0.57050     0.57578     0.57824     0.58938     0.58939
    0.60535     0.61445     0.61920     0.62427     0.63723     0.65147
    0.65270     0.65949     0.66195     0.67507     0.68331     0.69578
    0.70720     0.71289     0.72710     0.73278     0.73559     0.74340
    0.74344     0.74836     0.75598     0.76821     0.77682     0.77908
    0.79698     0.79909     0.80897     0.80937     0.80952     0.81541
    0.82318     0.83937     0.85326     0.85440     0.87442     0.87671
    0.88076     0.90500     0.91029     0.91789     0.92281     0.92701
    0.93599     0.96722     0.97201     0.98292     0.99802     0.99871
    1.01460     1.05049     1.07102     1.12293     1.12887     1.13569
    1.14044     1.14405     1.15811     1.16888     1.17715     1.18150
    1.20754     1.27624     1.27656     1.28041     1.28406     1.29519
    1.30580     1.30797     1.31420     1.32202     1.34283     1.34679
    1.36511     1.39109     1.44396     1.45227     1.45398     1.46203
    1.46688     1.47127     1.47969     1.49152     1.49967     1.50026
    1.51191     1.54959     1.55911     1.56204     1.57648     1.58403
    1.59527     1.60109     1.60315     1.62347     1.63187     1.63973
    1.64194     1.64578     1.65582     1.66308     1.66966     1.67808
    1.68218     1.69565     1.71073     1.71460     1.71864     1.71973
    1.74464     1.74669     1.77690     1.77732     1.82098     1.82578
    1.83346     1.83588     1.83862     1.85379     1.85465     1.87459
    1.89169     1.89587     1.91183     1.92007     1.94712     1.96147
    1.98050     1.99230     2.00852     2.01254     2.02083     2.15222
    2.16174     2.16723     2.21172     2.22203     2.23964     2.34364
    2.34436     2.37212     2.43248     2.44590     2.56957     2.61194
    2.68012     2.69172     2.71695     2.73019     2.73037     2.75778
    2.88786     2.88999     2.89648     2.90842     2.93013     2.93060
    2.94582     2.95087     2.95514     2.96564     2.97323     2.98959
    2.99033     2.99359     3.01590     3.01958     3.03440     3.03495
    3.06596     3.08055     3.08489     3.12141     3.13581     3.15989
    3.16123     3.16356     3.16608     3.17658     3.18011     3.20408
    3.20468     3.24101     3.24757     3.27889     3.31065     3.31978
    3.33541     3.34192     3.34740     3.39218     3.46957     3.49153
    3.49617     3.51439     3.52919     3.53288     3.55007     3.55972
    3.57256     3.58069     3.59001     3.60582     3.60801     3.63516
    3.65867     3.66794     3.67281     3.69686     3.69847     3.70064
    3.71479     3.73481     3.77043     3.77888     3.82077     3.82263
    3.83601     3.84543     3.88297     3.95448     4.00628     4.01826
    4.03314     4.06409     4.06410     4.08552     4.08694     4.10027
    4.12281     4.12525     4.14837     4.15659     4.16212     4.20693
    4.22233     4.22500     4.24611     4.25857     4.27915     4.28211
    4.30361     4.30736     4.35198     4.37581     4.37676     4.39726
    4.40189     4.40587     4.41348     4.42215     4.43029     4.45632
    4.46658     4.47021     4.49659     4.50495     4.60967     4.61026
    4.67124     4.67442     4.69747     4.70548     4.70580     4.71981
    4.73219     4.80287     4.81284     4.83112     4.83228     4.83356
    4.91307     4.96744     4.97022     5.13280     5.15196     5.15318
    5.16556     5.16980     5.18466     5.18470     5.20799     5.22634
    5.22865     5.26822     5.28090     5.28892     5.29209     5.35860
    5.37241     5.37887     5.44558     5.44994     5.46632     5.49634
    5.49718     5.53133     5.57110     5.57629     5.58623     5.67702
    5.69487     5.71055     5.77517     5.78766     5.79480     5.80953
    5.81902     5.82570     5.95001     6.87740     6.89649     6.99565
    8.26402    12.35112    23.05606    23.62579    23.63054    23.65004
   32.44101
 --------------------------------------------------------------
 
          Ground-State Mulliken Net Atomic Charges

     Atom                 Charge (a.u.)
  ----------------------------------------
      1 H                    -0.168106
      2 Si                    0.081231
      3 C                    -0.190307
      4 C                    -0.181147
      5 C                    -0.181143
      6 H                     0.064656
      7 H                     0.080414
      8 H                     0.064658
      9 H                     0.065600
     10 H                     0.064999
     11 H                     0.080784
     12 H                     0.065009
     13 H                     0.065598
     14 H                     0.080784
     15 Br                    0.140438
     16 C                     0.067064
     17 N                    -0.200532
  ----------------------------------------
  Sum of atomic charges =     0.000000

 -----------------------------------------------------------------
                    Cartesian Multipole Moments
 -----------------------------------------------------------------
    Charge (ESU x 10^10)
                -0.0000
    Dipole Moment (Debye)
         X       4.0911      Y       0.0015      Z       0.6301
       Tot       4.1393
    Quadrupole Moments (Debye-Ang)
        XX     -80.4610     XY      -0.0084     YY     -64.1937
        XZ      -4.7945     YZ      -0.0021     ZZ     -65.1206
    Octopole Moments (Debye-Ang^2)
       XXX      59.1813    XXY       0.0529    XYY     -14.6361
       YYY       0.0528    XXZ      20.0594    XYZ       0.0053
       YYZ       8.0800    XZZ     -11.5316    YZZ       0.0075
       ZZZ      12.7347
    Hexadecapole Moments (Debye-Ang^3)
      XXXX   -3229.2852   XXXY      -0.5473   XXYY    -505.8293
      XYYY      -0.2743   YYYY    -341.9469   XXXZ    -156.2922
      XXYZ      -0.0431   XYYZ      -3.4108   YYYZ       0.0194
      XXZZ    -507.1883   XYZZ      -0.1252   YYZZ    -104.0011
      XZZZ     -43.7173   YZZZ       0.0200   ZZZZ    -275.6105
 -----------------------------------------------------------------
 Total job time:  1653.59s(wall), 11469.30s(cpu) 
 Wed May 29 18:41:53 2024

        *************************************************************
        *                                                           *
        *  Thank you very much for using Q-Chem.  Have a nice day.  *
        *                                                           *
        *************************************************************


