
Running Job 1 of 1 Me3SiH_NO2F_eda2_op1_wB97X-V_tzvppd.in
qchem Me3SiH_NO2F_eda2_op1_wB97X-V_tzvppd.in_150776.0 /data/scratch/Me3SiH_NO2F_eda2_op1_wB97X-V_tzvppd20240529223032/ 1
/opt/qchem/6.1/exe/qcprog.exe_s Me3SiH_NO2F_eda2_op1_wB97X-V_tzvppd.in_150776.0 /data/scratch/Me3SiH_NO2F_eda2_op1_wB97X-V_tzvppd20240529223032/
                  Welcome to Q-Chem
     A Quantum Leap Into The Future Of Chemistry


 Q-Chem 6.1, Q-Chem, Inc., Pleasanton, CA (2023)

 E. Epifanovsky,  A. T. B. Gilbert,  Xintian Feng,  Joonho Lee,  Yuezhi Mao,  
 N. Mardirossian,  P. Pokhilko,  A. White,  M. Wormit,  M. P. Coons,  
 A. L. Dempwolff,  Zhengting Gan,  D. Hait,  P. R. Horn,  L. D. Jacobson,  
 I. Kaliman,  J. Kussmann,  A. W. Lange,  Ka Un Lao,  D. S. Levine,  Jie Liu,  
 S. C. McKenzie,  A. F. Morrison,  K. D. Nanda,  F. Plasser,  D. R. Rehn,  
 M. L. Vidal,  Zhi-Qiang You,  Ying Zhu,  B. Alam,  B. Albrecht,  
 A. Aldossary,  E. Alguire,  J. H. Andersen,  V. Athavale,  D. Barton,  
 K. Begam,  A. Behn,  N. Bellonzi,  Y. A. Bernard,  E. J. Berquist,  
 H. Burton,  A. Carreras,  K. Carter-Fenk,  Mathew Chow,  Romit Chakraborty,  
 Chandrima Chakravarty,  Junhan Chen,  A. D. Chien,  K. D. Closser,  
 V. Cofer-Shabica,  L. Cunha,  S. Dasgupta,  Jia Deng,  M. de Wergifosse,  
 M. Diedenhofen,  Hainam Do,  S. Ehlert,  Po-Tung Fang,  S. Fatehi,  
 Qingguo Feng,  T. Friedhoff,  Thomas Froitzheim,  B. Ganoe,  J. Gayvert,  
 Qinghui Ge,  G. Gidofalvi,  M. Gimferrer,  M. Goldey,  Montgomery Gray,  
 J. Gomes,  C. Gonzalez-Espinoza,  S. Gulania,  A. Gunina,  J. A. Gyamfi,  
 M. W. D. Hanson-Heine,  P. H. P. Harbach,  A. W. Hauser,  M. F. Herbst,  
 M. Hernandez Vera,  M. Hodecker,  Z. C. Holden,  S. Houck,  Xunkun Huang,  
 Kerwin Hui,  B. C. Huynh,  K. Ikeda,  M. Ivanov,  Hyunjun Ji,  Zuxin Jin,  
 Hanjie Jiang,  Subrata Jana,  B. Kaduk,  S. Kaehler,  R. Kang,  
 K. Khistyaev,  Jaehoon Kim,  Yongbin Kim,  P. Klunzinger,  Z. Koczor-Benda,  
 Joong Hoon Koh,  D. Kosenkov,  Saikiran Kotaru,  L. Koulias,  T. Kowalczyk,  
 C. M. Krauter,  K. Kue,  A. Kunitsa,  T. Kus,  A. Landau,  K. V. Lawler,  
 D. Lefrancois,  S. Lehtola,  Rain Li,  Shaozhi Li,  Yi-Pei Li,  
 Jiashu Liang,  M. Liebenthal,  Hung-Hsuan Lin,  You-Sheng Lin,  Fenglai Liu,  
 Kuan-Yu Liu,  Xiao Liu,  M. Loipersberger,  A. Luenser,  C. Malbon,  
 A. Manjanath,  P. Manohar,  E. Mansoor,  S. F. Manzer,  Shan-Ping Mao,  
 A. V. Marenich,  T. Markovich,  S. Mason,  F. Matz,  S. A. Maurer,  
 P. F. McLaughlin,  M. F. S. J. Menger,  J.-M. Mewes,  S. A. Mewes,  
 P. Morgante,  Mohammad Mostafanejad,  J. W. Mullinax,  K. J. Oosterbaan,  
 G. Paran,  V. Parravicini,  Alexander C. Paul,  Suranjan K. Paul,  
 F. Pavosevic,  Zheng Pei,  S. Prager,  E. I. Proynov,  E. Ramos,  B. Rana,  
 A. E. Rask,  A. Rettig,  R. M. Richard,  F. Rob,  E. Rossomme,  T. Scheele,  
 M. Scheurer,  M. Schneider,  P. E. Schneider,  Tim K. Schramm,  N. Sergueev,  
 S. M. Sharada,  M. Sharma,  Hengyuan Shen,  W. Skomorowski,  D. W. Small,  
 C. J. Stein,  Alistair J. Sterling,  Yingli Su,  Yu-Chuan Su,  
 E. J. Sundstrom,  J. Talbot,  Zhen Tao,  J. Thirman,  Hung-Yi Tsai,  
 T. Tsuchimochi,  N. M. Tubman,  C. Utku,  S. P. Veccham,  O. Vydrov,  
 J. Wenzel,  Jonathan Wong,  J. Witte,  A. Yamada,  Chou-Hsun Yang,  Kun Yao,  
 S. Yeganeh,  S. R. Yost,  A. Zech,  F. Zeller,  Igor Ying Zhang,  
 Xing Zhang,  Yu Zhang,  D. Zuev,  A. Aspuru-Guzik,  A. T. Bell,  
 N. A. Besley,  K. B. Bravaya,  B. R. Brooks,  D. Casanova,  Jeng-Da Chai,  
 Hsing-Ta Chen,  S. Coriani,  C. J. Cramer,  A. E. DePrince, III,  
 R. A. DiStasio Jr.,  A. Dreuw,  B. D. Dunietz,  T. R. Furlani,  
 W. A. Goddard III,  S. Grimme,  S. Hammes-Schiffer,  T. Head-Gordon,  
 W. J. Hehre,  Chao-Ping Hsu,  T.-C. Jagau,  Yousung Jung,  A. Klamt,  
 Jing Kong,  D. S. Lambrecht,  Xiangyuan Li,  WanZhen Liang,  N. J. Mayhall,  
 C. W. McCurdy,  J. B. Neaton,  T. Neudecker,  C. Ochsenfeld,  
 J. A. Parkhill,  R. Peverati,  V. A. Rassolov,  Haisheng Ren,  Yihan Shao,  
 L. V. Slipchenko,  R. P. Steele,  J. E. Subotnik,  A. J. W. Thom,  
 A. Tkatchenko,  D. G. Truhlar,  T. Van Voorhis,  Fan Wang,  
 T. A. Wesolowski,  K. B. Whaley,  H. L. Woodcock III,  P. M. Zimmerman,  
 S. Faraji,  P. M. W. Gill,  M. Head-Gordon,  J. M. Herbert,  A. I. Krylov

 Contributors to earlier versions of Q-Chem not listed above: 
 R. D. Adamson,  B. Austin,  R. Baer,  J. Baker,  G. J. O. Beran,  
 K. Brandhorst,  S. T. Brown,  E. F. C. Byrd,  Arup K. Chakraborty,  
 G. K. L. Chan,  Chun-Min Chang,  Yunqing Chen,  C.-L. Cheng,  
 Siu Hung Chien,  D. M. Chipman,  D. L. Crittenden,  H. Dachsel,  
 R. J. Doerksen,  A. D. Dutoi,  R. G. Edgar,  J. Fosso-Tande,  
 L. Fusti-Molnar,  D. Ghosh,  A. Ghysels,  A. Golubeva-Zadorozhnaya,  
 J. Gonthier,  M. S. Gordon,  S. R. Gwaltney,  G. Hawkins,  J. E. Herr,  
 A. Heyden,  S. Hirata,  E. G. Hohenstein,  G. Kedziora,  F. J. Keil,  
 C. Kelley,  Jihan Kim,  R. A. King,  R. Z. Khaliullin,  P. P. Korambath,  
 W. Kurlancheek,  A. Laurent,  A. M. Lee,  M. S. Lee,  S. V. Levchenko,  
 Ching Yeh Lin,  D. Liotard,  E. Livshits,  R. C. Lochan,  I. Lotan,  
 L. A. Martinez-Martinez,  P. E. Maslen,  N. Nair,  D. P. O'Neill,  
 D. Neuhauser,  E. Neuscamman,  C. M. Oana,  R. Olivares-Amaya,  R. Olson,  
 T. M. Perrine,  B. Peters,  P. A. Pieniazek,  A. Prociuk,  Y. M. Rhee,  
 J. Ritchie,  M. A. Rohrdanz,  E. Rosta,  N. J. Russ,  H. F. Schaefer III,  
 M. W. Schmidt,  N. E. Schultz,  S. Sharma,  N. Shenvi,  C. D. Sherrill,  
 A. C. Simmonett,  A. Sodt,  T. Stein,  D. Stuck,  K. S. Thanthiriwatte,  
 V. Vanovschi,  L. Vogt,  Tao Wang,  A. Warshel,  M. A. Watson,  
 C. F. Williams,  Q. Wu,  X. Xu,  Jun Yang,  W. Zhang,  Yan Zhao

   Please cite Q-Chem as follows:
  "Software for the frontiers of quantum chemistry:
   An overview of developments in the Q-Chem 5 package"
   J. Chem. Phys. 155, 084801 (2021)
   https://doi.org/10.1063/5.0055522 (open access)

 Q-Chem 6.1.1 for Intel X86 EM64T Linux

 Parts of Q-Chem use Armadillo 9.900.5 (Nocturnal Misbehaviour).
 http://arma.sourceforge.net/

 Q-Chem begins on Wed May 29 22:30:33 2024  

 Host: 
0

     Scratch files written to /data/scratch/Me3SiH_NO2F_eda2_op1_wB97X-V_tzvppd20240529223032//
 Jan1824 |scratch|qcdevops|jenkins|workspace|build_RNUM -1
 Processing $rem in /opt/qchem/6.1/config/preferences:
 Processing $rem in /home/ymao/.qchemrc:

 Q-Chem warning in module libgen/rem_setup.C, line 3361:

 Neither GIA nor STOLL is specified by user. Use STOLL as the default


 Checking the input file for inconsistencies... 	...done.

--------------------------------------------------------------
User input:
--------------------------------------------------------------
$molecule
0 1
--
0 1
C    -1.46647   -1.70584   0.68668
Si   -1.40427   -0.01483   -0.14062
C    -1.11563   1.33837    1.13833
C    -2.99139   0.31211    -1.10201
H    -0.26209   -0.00359   -1.11713
H    -1.59761   -2.51045   -0.05465
H    -0.53879   -1.90903   1.24404
H    -2.30709   -1.76421   1.39773
H    -1.03634   2.32910    0.66248
H    -0.18853   1.16328    1.70641
H    -1.94906   1.37764    1.85903
H    -2.95639   1.28802    -1.61231
H    -3.16164   -0.46150   -1.86781
H    -3.86454   0.31635    -0.42874
--
0 1
N    2.28974    0.12493    -0.31611
F    1.89036    -0.62694   0.84627
O    2.60975    -0.56869   -1.20661
O    2.21761    1.28365    -0.14096
$end

$rem
JOBTYPE  EDA
EDA2  1
METHOD  WB97X-V
BASIS  DEF2-TZVPPD
SYMMETRY  FALSE
SYM_IGNORE  TRUE
MEM_TOTAL  8000
MEM_STATIC  2000
BASIS_LIN_DEP_THRESH  6
THRESH  14
SCF_CONVERGENCE  8
GEN_SCFMAN  TRUE
MAXSCF  200
FD_MAT_VEC_PROD  FALSE
XC_GRID  000099000590
NL_GRID  1
SCF_GUESS  FRAGMO
FRZ_ORTHO_DECOMP  -1
EDA_CLS_DISP  TRUE
EDA_POL_A  TRUE
EDA_VCT_A  TRUE
EDA_SAVE_COVP  TRUE
EDA_COVP_THRESH  250
MAKE_CUBE_FILES  TRUE
PLOTS  TRUE
$end

$plots
grid_points 100 100 100
$end
--------------------------------------------------------------
 ----------------------------------------------------------------
             Standard Nuclear Orientation (Angstroms)
    I     Atom           X                Y                Z
 ----------------------------------------------------------------
    1      C      -1.4664700000    -1.7058400000     0.6866800000
    2      Si     -1.4042700000    -0.0148300000    -0.1406200000
    3      C      -1.1156300000     1.3383700000     1.1383300000
    4      C      -2.9913900000     0.3121100000    -1.1020100000
    5      H      -0.2620900000    -0.0035900000    -1.1171300000
    6      H      -1.5976100000    -2.5104500000    -0.0546500000
    7      H      -0.5387900000    -1.9090300000     1.2440400000
    8      H      -2.3070900000    -1.7642100000     1.3977300000
    9      H      -1.0363400000     2.3291000000     0.6624800000
   10      H      -0.1885300000     1.1632800000     1.7064100000
   11      H      -1.9490600000     1.3776400000     1.8590300000
   12      H      -2.9563900000     1.2880200000    -1.6123100000
   13      H      -3.1616400000    -0.4615000000    -1.8678100000
   14      H      -3.8645400000     0.3163500000    -0.4287400000
   15      N       2.2897400000     0.1249300000    -0.3161100000
   16      F       1.8903600000    -0.6269400000     0.8462700000
   17      O       2.6097500000    -0.5686900000    -1.2066100000
   18      O       2.2176100000     1.2836500000    -0.1409600000
 ----------------------------------------------------------------
 Nuclear Repulsion Energy =         468.61850151 hartrees
 There are       37 alpha and       37 beta electrons
 Requested basis set is def2-TZVPPD
 There are 180 shells and 486 basis functions

 Total QAlloc Memory Limit   8000 MB
 Mega-Array Size      1956 MB
 MEM_STATIC part      2000 MB

 A cutoff of  1.0D-14 yielded  14533 shell pairs
 There are    105397 function pairs (    131755 Cartesian)
 Smallest overlap matrix eigenvalue = 2.11E-05

 Scale SEOQF with 1.000000e-01/1.000000e-01/1.000000e-01

 Standard Electronic Orientation quadrupole field applied
 Nucleus-field energy     =     0.0000000104 hartrees

 -----------------------------------------------------------------------
  General SCF calculation program by
  Eric Jon Sundstrom, Paul Horn, Yuezhi Mao, Dmitri Zuev, Alec White,
  David Stuck, Shaama M.S., Shane Yost, Joonho Lee, David Small,
  Daniel Levine, Susi Lehtola, Hugh Burton, Evgeny Epifanovsky,
  Bang C. Huynh
 -----------------------------------------------------------------------
================================================================
                 ALMO-EDA with the EDA2 driver                  
================================================================
 The second-generation ALMO-EDA (for DFT):                      
 P. R. Horn, Y. Mao and M. Head-Gordon, PCCP, 18, 23067 (2016)  
 Y. Mao et al. Annu. Rev. Phys. Chem. 72, 641 (2021)            
 Decomposition of the frozen energy:                            
 P. R. Horn, Y. Mao and M. Head-Gordon, JCP, 144, 114107 (2016) 
 FERF model for polarization:                                   
 P. R. Horn and M. Head-Gordon, JCP, 143, 114111 (2015)         
================================================================
 Using eda2 option set 1
 Option set summary: Frozen orbital wavefunction, initial wavefunction decomposition, and nDQ polarization.
--------------------------------
Printing EDA Options
--------------------------------
eda_child_super_basis      0
fragmo_guess_mode          0
child_mp                   1
child_mp_orders            232
cls_elec                   1
cls_disp                   1
scfmi_mode                 1
scfmi_occs                 0
scfmi_virts                0
frz_relax                  0
frz_relax_method           0
dc_pen_start               0
dc_pen_conv                0
dc_pen_increment           0
dc_pen_steps               0
dc_pen_thresh_factor       0
dc_pen_pre_newton_thresh   0
frz_ortho_decomp           0
frz_ortho_decomp_conv      6
plot_mo_ortho_frz          0
frgm_method                2
scfmi_freeze_ss            0
separate_rehyb             0
plot_diff_den              0
eda_nocv                   0
eda_vct_relax              1
disp_free_x                0
disp_free_c                0
eda_bsse                   0
eda_pct_a                  0
eda_covp                   0
eda_vct_a                  1
--------------------------------
 Attempting to make child job directory: /data/scratch/Me3SiH_NO2F_eda2_op1_wB97X-V_tzvppd20240529223032//Frg1/
 Attempting to make child job directory: /data/scratch/Me3SiH_NO2F_eda2_op1_wB97X-V_tzvppd20240529223032//Frg2/
 Creating input file /data/scratch/Me3SiH_NO2F_eda2_op1_wB97X-V_tzvppd20240529223032/Frg1.input
 using default PutDataFrgm: nothing
 calling putenv with: QCSCRATCH=/data/scratch/Me3SiH_NO2F_eda2_op1_wB97X-V_tzvppd20240529223032/ 
 Spawning Job For Fragment 0
 Done Job For Fragment 0
 calling putenv with: QCSCRATCH=/data/scratch 
 calling putenv with: QCTHREADS=16 
 Creating input file /data/scratch/Me3SiH_NO2F_eda2_op1_wB97X-V_tzvppd20240529223032/Frg2.input
 using default PutDataFrgm: nothing
 calling putenv with: QCSCRATCH=/data/scratch/Me3SiH_NO2F_eda2_op1_wB97X-V_tzvppd20240529223032/ 
 Spawning Job For Fragment 1
 Done Job For Fragment 1
 calling putenv with: QCSCRATCH=/data/scratch 
 calling putenv with: QCTHREADS=16 
Doing General SCFMI
 Exchange:     0.1670 Hartree-Fock + 1.0000 wB97X-V + LR-HF
 Correlation:  1.0000 wB97X-V
 Using Euler-Maclaurin-Lebedev (99,590) quadrature formula
 Nonlocal Correlation:  VV10 with C = 0.0100 and b = 6.00 and scale = 1.00000
 Grid used for NLC:  SG-1 standard quadrature
performing fock build before subrot guess so that all methods have access
Printing subrot_rss_gen Method Specification:
Occupied Subspace Method is 0
Virtual Subspace Method is 0
Energy of the unrelaxed supersystem initial determinant -714.766475462753
write pseudocanon occs and virts to disk
write pseudocanon orbital energies to disk
 Exchange:     0.1670 Hartree-Fock + 1.0000 wB97X-V + LR-HF
 Correlation:  1.0000 wB97X-V
 Using Euler-Maclaurin-Lebedev (99,590) quadrature formula
 Nonlocal Correlation:  VV10 with C = 0.0100 and b = 6.00 and scale = 1.00000
 Grid used for NLC:  SG-1 standard quadrature
 Long-range K will be added via erf
 Coulomb attenuation parameter = 0.3 bohr**(-1)
 Nonlocal correlation = 0.294695149770
 Hartree-Fock
Doing General SCFMI
 Exchange:     0.1670 Hartree-Fock + 1.0000 wB97X-V + LR-HF
 Correlation:  1.0000 wB97X-V
 Using Euler-Maclaurin-Lebedev (99,590) quadrature formula
 Nonlocal Correlation:  VV10 with C = 0.0100 and b = 6.00 and scale = 1.00000
 Grid used for NLC:  SG-1 standard quadrature
performing fock build at end of subrot_r(subrot) constructor so that all methods have access
<S^2> of initial wavefunction before polarization iterations 0.0000000000
Beginning iterations for the determination of the polarized wavefunction
Energy prior to optimization (guess energy) = -714.766475462753
Begin Timing: Total SCF Calculation
begin iterations for algorithm: DIIS         
the SCF tolerance is set to 1.00e-08
    1    -714.7664754628      8.41e-05     00000 
    2    -714.7669413696      2.97e-05     00000 
    3    -714.7669867120      1.45e-05     00000 
    4    -714.7669950920      9.04e-06     00000 
    5    -714.7669971490      4.28e-06     00000 
    6    -714.7669979360      1.08e-06     00000 
    7    -714.7669980163      4.17e-07     00000 
    8    -714.7669980239      2.43e-07     00000 
    9    -714.7669980250      8.63e-08     00000 
   10    -714.7669980252      2.98e-08     00000 
   11    -714.7669980253      1.21e-08     00000 
   12    -714.7669980253      6.27e-09     00000 Convergence criterion met
write pseudocanon occs and virts to disk
write pseudocanon orbital energies to disk
Timing for Total SCF: 263.00s (wall), 3957.37s (cpu)
<S^2> of polarized wavefunction after polarization iterations 0.0000000000
Doing General SCFMI
 Exchange:     0.1670 Hartree-Fock + 1.0000 wB97X-V + LR-HF
 Correlation:  1.0000 wB97X-V
 Using Euler-Maclaurin-Lebedev (99,590) quadrature formula
 Nonlocal Correlation:  VV10 with C = 0.0100 and b = 6.00 and scale = 1.00000
 Grid used for NLC:  SG-1 standard quadrature
performing fock build at end of subrot_r(subrot) constructor so that all methods have access
GDM subspace size: 20
    1       0.0007717398      1.32e-03     00000 Preconditoned Steepest Descent
    2       0.0069367493      3.96e-03     00000 LineSearch Step
    3       0.0000000004      9.01e-07     00000 BFGS Step
    4       0.0000000000      2.92e-07     00000 BFGS Step
    5       0.0000000002      6.75e-07     00000 LineSearch Step
    6       0.0000000000      8.27e-08     00000 BFGS Step
    7       0.0000000000      3.14e-09     00000 BFGS Step
GDM subspace size: 20
    1       0.0002108080      9.33e-04     00000 Preconditoned Steepest Descent
    2       0.0018969965      2.80e-03     00000 LineSearch Step
    3       0.0000000000      1.55e-07     00000 BFGS Step
    4       0.0000000000      3.81e-08     00000 BFGS Step
    5       0.0000000000      9.80e-08     00000 LineSearch Step
    6       0.0000000000      8.68e-09     00000 BFGS Step
    7       0.0000000000      1.84e-10     00000 BFGS Step
=========Fragment P Connection POL Analysis Result=========
P Connection Polarization Energy (kJ/mol)  : -1.371988
P Connection On-Fragment Charge Shift (me-): +0.853409
First Principle Polarization Energy (kJ/mol)  : -1.371988
First Principle On-Fragment Charge Shift (me-): +0.853409
___________________________________________________________
=========Fragment-wise P Connection POL Analysis=========
[Fragment 1]
E_1 (kJ/mol): -0.976577, Q_1 (me-): +0.668546
[Fragment 2]
E_2 (kJ/mol): -0.395411, Q_2 (me-): +0.184862
_________________________________________________________
==============================================================
           Fragment P Connection POL COVP Analysis            
==============================================================
Using user defined COVP significance threshold 0.250 (kJ/mol)
--------------------------------------------------------------
 D  A  dE (kJ/mol)  dE %    dQ (me-)  dQ %    idx(D)  idx(A)
 1  1   -0.8125     59.22   0.5673    66.47     1       2   
______________________________________________________________
relaxing scfmi constraint to allow all rotations in the entire AO span
Doing General SCFMI
 Exchange:     0.1670 Hartree-Fock + 1.0000 wB97X-V + LR-HF
 Correlation:  1.0000 wB97X-V
 Using Euler-Maclaurin-Lebedev (99,590) quadrature formula
 Nonlocal Correlation:  VV10 with C = 0.0100 and b = 6.00 and scale = 1.00000
 Grid used for NLC:  SG-1 standard quadrature
performing fock build at end of subrot_r(subrot) constructor so that all methods have access
<S^2> of polarized wavefunction before ct-allowed iterations 0.0000000000
Beginning iterations for the determination of the CT-Allowed wavefunction
Energy prior to optimization (guess energy) = -714.766998025271
Begin Timing: Total SCF Calculation
begin iterations for algorithm: DIIS         
the SCF tolerance is set to 1.00e-08
    1    -714.7669980253      8.66e-05     00000 
    2    -714.7676442614      8.10e-06     00000 
    3    -714.7676679765      1.99e-06     00000 
    4    -714.7676694420      1.81e-06     00000 
    5    -714.7676697274      2.94e-07     00000 
    6    -714.7676697575      1.74e-07     00000 
    7    -714.7676697605      5.01e-08     00000 
    8    -714.7676697608      1.80e-08     00000 
    9    -714.7676697609      6.31e-09     00000 Convergence criterion met
write pseudocanon occs and virts to disk
write pseudocanon orbital energies to disk
Timing for Total SCF: 167.00s (wall), 2617.69s (cpu)
<S^2> of ct_allowed wavefunction after ct-allowed iterations 0.0000000000
GDM subspace size: 20
    1       0.0008807927      6.51e-04     00000 Preconditoned Steepest Descent
    2       0.0079218129      1.95e-03     00000 LineSearch Step
    3       0.0000000001      2.66e-07     00000 BFGS Step
    4       0.0000000000      1.34e-07     00000 BFGS Step
    5       0.0000000001      2.26e-07     00000 LineSearch Step
    6       0.0000000000      4.93e-08     00000 BFGS Step
    7       0.0000000000      4.79e-09     00000 BFGS Step

==============Non-Perturbative CT Analysis Result===============
Non-Perturbative CT Energy (kJ/mol)   : -1.763642
Non-Perturbative Charge Transfer (me-): +0.880793
First Principle CT Energy (kJ/mol)    : -1.763642
First Principle Charge Transfer (me-) : +0.880793
_______________________________________________________________
========Fragment-wise Non-Perturbative CT Analysis=======
---Fragment-wise CT energies (row to col, kJ/mol)
			1			2
	1   -0.044218   -0.957815
	2   -0.745573   -0.016035
---Fragment-wise charge transfer (row to col, me-)
			1			2
	1   -0.023127    0.614500
	2    0.342174   -0.052755
_________________________________________________________
==============================================================
              Non-Perturbative CT COVP Analysis               
==============================================================
Using user defined COVP significance threshold 0.250 (kJ/mol)
--------------------------------------------------------------
 D  A  dE (kJ/mol)  dE %    dQ (me-)  dQ %    idx(D)  idx(A)
 1  2   -0.7224     40.96   0.5056    57.40     3       4   
 2  1   -0.3468     19.66   0.1820    20.66     5       6   
______________________________________________________________
Done with restricted VCTA
Beginning cube_generation (with a 'new' $plots section):
The cube files of the following orbitals are generated: 
 1 2 3 4 5 6
Grid information in Angstroms:
 x:        100  min =  -6.864540 max =   5.609750
 y:        100  min =  -5.510450 max =   5.329100
 z:        100  min =  -4.867810 max =   4.859030
 Created directory /data/scratch/Me3SiH_NO2F_eda2_op1_wB97X-V_tzvppd20240529223032/plots

================================
        Results of EDA2         
================================
Basic EDA Quantities
--------------------
Fragment Energies (Ha):
1 -409.8391443440
2 -304.9244890907
--------------------
  E_prp (kJ/mol) = 0.0000
  E_frz (kJ/mol) = -7.4618
  E_pol (kJ/mol) = -1.3720
  E_vct (kJ/mol) = -1.7637
  E_int (kJ/mol) = -10.5975
--------------------


Decomposition of frozen interaction energy
--------------------
  --------------------
  Classical Frozen Decomposition:
  --------------------
     E_cls_elec  (CLS ELEC)  (kJ/mol) = -11.0682
     E_mod_pauli (MOD PAULI) (kJ/mol) = 18.0124 (FRZ - CLS ELEC - CLS DISP)
     E_cls_disp  (CLS DISP)  (kJ/mol) = -14.4061
  --------------------
--------------------

Simplified EDA Summary (kJ/mol)
--------------------
 PREPARATION      0.0000
 FROZEN           -7.4618 (ELEC + PAULI + DISP)
[ELEC + PAULI = 6.9442, DISP = -14.4061]
 POLARIZATION    -1.3720
 CHARGE TRANSFER -1.7637
 TOTAL           -10.5975     (PRP + FRZ + POL + CT)
--------------------
 
 --------------------------------------------------------------
 
                    Orbital Energies (a.u.)
 --------------------------------------------------------------
 
 Alpha MOs
 -- Occupied --
-66.1126 -24.8159 -19.3264 -19.3262 -14.7674 -10.2493 -10.2478 -10.2478
 -5.3641  -3.7143  -3.7134  -3.7134  -1.4966  -1.3409  -1.3046  -0.8457
 -0.8419  -0.8068  -0.8060  -0.7550  -0.7490  -0.7081  -0.5950  -0.5843
 -0.5652  -0.5288  -0.5189  -0.5165  -0.5115  -0.4985  -0.4969  -0.4906
 -0.4857  -0.4733  -0.4130  -0.4045  -0.4041
 -- Virtual --
 -0.0054   0.0446   0.0662   0.0751   0.0778   0.0865   0.1026   0.1051
  0.1084   0.1204   0.1235   0.1320   0.1374   0.1439   0.1545   0.1574
  0.1589   0.1701   0.1713   0.1772   0.1825   0.1865   0.1882   0.1946
  0.2022   0.2069   0.2116   0.2308   0.2430   0.2449   0.2505   0.2545
  0.2563   0.2687   0.2762   0.2824   0.2906   0.2959   0.3103   0.3118
  0.3165   0.3203   0.3243   0.3246   0.3320   0.3393   0.3429   0.3494
  0.3498   0.3533   0.3630   0.3666   0.3692   0.3798   0.3844   0.3896
  0.3925   0.3933   0.4002   0.4073   0.4099   0.4142   0.4337   0.4407
  0.4435   0.4521   0.4580   0.4607   0.4700   0.4731   0.4784   0.4841
  0.4874   0.4955   0.5057   0.5100   0.5171   0.5271   0.5295   0.5318
  0.5354   0.5388   0.5497   0.5512   0.5568   0.5618   0.5646   0.5691
  0.5741   0.5782   0.5849   0.5930   0.6033   0.6211   0.6246   0.6319
  0.6363   0.6464   0.6488   0.6533   0.6628   0.6699   0.6775   0.6897
  0.7037   0.7072   0.7163   0.7228   0.7323   0.7418   0.7456   0.7518
  0.7567   0.7657   0.7739   0.7786   0.7868   0.7935   0.8008   0.8059
  0.8074   0.8160   0.8207   0.8241   0.8312   0.8429   0.8469   0.8538
  0.8610   0.8638   0.8818   0.8955   0.9096   0.9263   0.9371   0.9456
  0.9599   0.9666   0.9872   0.9906   0.9963   1.0179   1.0203   1.0415
  1.0683   1.0813   1.0842   1.0964   1.1125   1.1271   1.1324   1.1522
  1.1562   1.1622   1.1680   1.1745   1.1885   1.2093   1.2226   1.2375
  1.2573   1.2634   1.2880   1.2947   1.3084   1.3159   1.3190   1.3197
  1.3274   1.3299   1.3549   1.3643   1.3736   1.3799   1.3898   1.3971
  1.4162   1.4294   1.4470   1.4752   1.4791   1.4931   1.4992   1.5074
  1.5129   1.5305   1.5402   1.5475   1.5902   1.6035   1.6165   1.6276
  1.6469   1.6549   1.6604   1.6789   1.6919   1.7198   1.7237   1.7308
  1.7412   1.7553   1.7607   1.7767   1.7920   1.8217   1.8318   1.8325
  1.8460   1.8512   1.8684   1.8714   1.8821   1.8882   1.9040   1.9239
  1.9551   1.9903   2.0057   2.0164   2.0260   2.0334   2.0476   2.1037
  2.1203   2.1760   2.1891   2.2358   2.3240   2.3448   2.3503   2.3722
  2.4015   2.4221   2.4312   2.4381   2.4546   2.4962   2.5321   2.6002
  2.6148   2.6360   2.6747   2.7746   2.7866   2.8067   2.8812   2.8960
  2.9064   2.9202   2.9307   2.9601   2.9676   2.9781   2.9843   2.9902
  3.0001   3.0063   3.0271   3.0317   3.0380   3.0602   3.0764   3.0821
  3.0970   3.1326   3.1452   3.1687   3.1907   3.2050   3.2122   3.2174
  3.2338   3.2538   3.2586   3.2709   3.2819   3.2981   3.3290   3.3342
  3.3500   3.3582   3.3642   3.4093   3.4667   3.4773   3.4884   3.5190
  3.5303   3.5442   3.5501   3.5628   3.5864   3.5949   3.6038   3.6203
  3.6343   3.6481   3.6642   3.6704   3.6766   3.6874   3.6945   3.7221
  3.7365   3.7556   3.7617   3.8002   3.8059   3.8385   3.8450   3.8483
  3.8691   3.8749   3.9057   3.9419   3.9793   4.0210   4.0339   4.0538
  4.0626   4.0976   4.1088   4.1114   4.1229   4.1345   4.1469   4.1639
  4.1679   4.1847   4.1892   4.2365   4.2656   4.2880   4.2955   4.3068
  4.3204   4.3208   4.3284   4.3379   4.3888   4.4113   4.4137   4.4199
  4.4283   4.4338   4.4432   4.4799   4.4872   4.5081   4.5193   4.5446
  4.6233   4.6382   4.6850   4.6861   4.7052   4.7199   4.7221   4.7319
  4.7336   4.7581   4.7997   4.8289   4.8349   4.8483   4.9294   4.9831
  4.9970   5.0571   5.1398   5.1464   5.1599   5.1638   5.1692   5.1955
  5.1983   5.2145   5.2247   5.2373   5.2428   5.2579   5.2672   5.2838
  5.2938   5.3027   5.3115   5.3720   5.3902   5.3960   5.4547   5.4671
  5.4805   5.5051   5.5132   5.5165   5.5446   5.5819   5.5911   5.5995
  5.6043   5.6266   5.7107   5.7540   5.7886   5.7987   5.8076   5.8246
  5.8332   5.8423   6.2737   6.4171   6.4773   6.5062   6.5178   6.5788
  6.6350   6.7146   6.8971   6.9077   6.9376   6.9429   6.9589   7.0177
  7.0239   7.0839   7.0886   7.1461   7.1958   7.2109   7.3137   7.3575
  7.3826   7.8231   7.8338   7.8708   8.6215   8.7037   8.8066   8.9334
  9.5020  12.3856  23.6496  23.6640  23.6695  32.6868  44.4468  44.4604
 57.6161
 --------------------------------------------------------------
 
          Ground-State Mulliken Net Atomic Charges

     Atom                 Charge (a.u.)
  ----------------------------------------
      1 C                    -0.186854
      2 Si                    0.150530
      3 C                    -0.196344
      4 C                    -0.191646
      5 H                    -0.156641
      6 H                     0.062021
      7 H                     0.042337
      8 H                     0.083270
      9 H                     0.059294
     10 H                     0.063742
     11 H                     0.096063
     12 H                     0.054311
     13 H                     0.055141
     14 H                     0.071243
     15 N                     0.883359
     16 F                    -0.211216
     17 O                    -0.344957
     18 O                    -0.333653
  ----------------------------------------
  Sum of atomic charges =     0.000000

 -----------------------------------------------------------------
                    Cartesian Multipole Moments
 -----------------------------------------------------------------
    Charge (ESU x 10^10)
                 0.0000
    Dipole Moment (Debye)
         X      -0.4940      Y       0.1160      Z       0.2230
       Tot       0.5543
    Quadrupole Moments (Debye-Ang)
        XX     -54.1536     XY       0.4162     YY     -58.0878
        XZ       0.1453     YZ      -0.1999     ZZ     -57.9111
    Octopole Moments (Debye-Ang^2)
       XXX      46.0085    XXY      -0.1242    XYY       8.9016
       YYY      -1.0390    XXZ       7.3458    XYZ      -1.4264
       YYZ      -2.0759    XZZ       9.2809    YZZ      -1.4160
       ZZZ       5.1887
    Hexadecapole Moments (Debye-Ang^3)
      XXXX   -1423.7156   XXXY      -2.1221   XXYY    -318.2600
      XYYY     -15.8091   YYYY    -404.2981   XXXZ      -3.2055
      XXYZ       1.5304   XYYZ      10.1641   YYYZ       0.8490
      XXZZ    -300.0936   XYZZ      -0.6981   YYZZ    -120.7571
      XZZZ      10.2241   YZZZ      -0.4149   ZZZZ    -318.6739
 -----------------------------------------------------------------
 Total job time:  1548.43s(wall), 12288.38s(cpu) 
 Wed May 29 22:56:22 2024

        *************************************************************
        *                                                           *
        *  Thank you very much for using Q-Chem.  Have a nice day.  *
        *                                                           *
        *************************************************************


