
Running Job 1 of 2 cf3h_opt_freq.in
qchem cf3h_opt_freq.in_1305778.0 /data/scratch/cf3h_opt_freq20241105142744/ 1
/opt/qchem/6.2.0/exe/qcprog.exe_s cf3h_opt_freq.in_1305778.0 /data/scratch/cf3h_opt_freq20241105142744/
                  Welcome to Q-Chem
     A Quantum Leap Into The Future Of Chemistry


 Q-Chem 6.2, Q-Chem, Inc., Pleasanton, CA (2024)

 E. Epifanovsky,  A. T. B. Gilbert,  Xintian Feng,  Joonho Lee,  Yuezhi Mao,  
 N. Mardirossian,  P. Pokhilko,  A. White,  M. Wormit,  M. P. Coons,  
 A. L. Dempwolff,  Zhengting Gan,  D. Hait,  P. R. Horn,  L. D. Jacobson,  
 I. Kaliman,  J. Kussmann,  A. W. Lange,  Ka Un Lao,  D. S. Levine,  Jie Liu,  
 S. C. McKenzie,  A. F. Morrison,  K. D. Nanda,  F. Plasser,  D. R. Rehn,  
 M. L. Vidal,  Zhi-Qiang You,  Ying Zhu,  Huseyin Aksu,  B. Alam,  
 B. Albrecht,  A. Aldossary,  E. Alguire,  J. H. Andersen,  
 J. E. Arias-Martinez,  V. Athavale,  D. Barton,  K. Begam,  A. Behn,  
 N. Bellonzi,  Y. A. Bernard,  E. J. Berquist,  H. Burton,  A. Carreras,  
 K. Carter-Fenk,  Mathew Chow,  Romit Chakraborty,  Chandrima Chakravarty,  
 Junhan Chen,  A. D. Chien,  K. D. Closser,  V. Cofer-Shabica,  L. Cunha,  
 S. Dasgupta,  Jia Deng,  Joseph Dickinson,  M. de Wergifosse,  
 M. Diedenhofen,  Hainam Do,  Wenjie Dou,  S. Ehlert,  Po-Tung Fang,  
 S. Fatehi,  Qingguo Feng,  Jonathan Fetherolf,  T. Friedhoff,  
 Thomas Froitzheim,  Sarai Folkestad,  B. Ganoe,  J. Gayvert,  Qinghui Ge,  
 G. Gidofalvi,  M. Gimferrer,  M. Goldey,  Montgomery Gray,  J. Gomes,  
 C. Gonzalez-Espinoza,  S. Gulania,  A. Gunina,  J. A. Gyamfi,  
 M. W. D. Hanson-Heine,  P. H. P. Harbach,  A. W. Hauser,  M. F. Herbst,  
 M. Hernandez Vera,  M. Hodecker,  Z. C. Holden,  S. Houck,  Xunkun Huang,  
 Kerwin Hui,  B. C. Huynh,  K. Ikeda,  M. Ivanov,  Nayanthara K. Jayadev,  
 Hyunjun Ji,  Zuxin Jin,  Hanjie Jiang,  Subrata Jana,  B. Kaduk,  
 S. Kaehler,  R. Kang,  K. Khistyaev,  Jaehoon Kim,  Yongbin Kim,  
 P. Klunzinger,  Z. Koczor-Benda,  Joong Hoon Koh,  D. Kosenkov,  
 Saikiran Kotaru,  L. Koulias,  T. Kowalczyk,  C. M. Krauter,  K. Kue,  
 A. Kunitsa,  T. Kus,  A. Landau,  K. V. Lawler,  D. Lefrancois,  S. Lehtola,  
 Rain Li,  Shaozhi Li,  Tao E. Li,  Yi-Pei Li,  Jiashu Liang,  M. Liebenthal,  
 Hung-Hsuan Lin,  You-Sheng Lin,  Fenglai Liu,  Kuan-Yu Liu,  Xiao Liu,  
 M. Loipersberger,  A. Luenser,  C. Malbon,  Aniket Mandal,  Manisha,  
 A. Manjanath,  P. Manohar,  E. Mansoor,  S. F. Manzer,  Shan-Ping Mao,  
 A. V. Marenich,  T. Markovich,  S. Mason,  F. Matz,  S. A. Maurer,  
 Samuel May,  Alexandra McIsaac,  P. F. McLaughlin,  M. F. S. J. Menger,  
 J.-M. Mewes,  S. A. Mewes,  P. Morgante,  Mohammad Mostafanejad,  
 Madhubani Mukherjee,  J. W. Mullinax,  Quyen Nguyen,  Avik Kumar Ojha,  
 K. J. Oosterbaan,  Eno Paenurk,  Xiaoliang Pan,  G. Paran,  V. Parravicini,  
 Alexander C. Paul,  Suranjan K. Paul,  F. Pavosevic,  Zheng Pei,  S. Prager,  
 E. I. Proynov,  E. Ramos,  B. Rana,  A. E. Rask,  A. Rettig,  R. M. Richard,  
 F. Rob,  E. Rossomme,  T. Scheele,  M. Scheurer,  M. Schneider,  
 P. E. Schneider,  Tim K. Schramm,  N. Sergueev,  S. M. Sharada,  
 Hengyuan Shen,  W. Skomorowski,  D. W. Small,  C. J. Stein,  
 Alistair J. Sterling,  Yingli Su,  Yu-Chuan Su,  E. J. Sundstrom,  
 J. Talbot,  Zhen Tao,  J. Thirman,  Hung-Yi Tsai,  T. Tsuchimochi,  
 N. M. Tubman,  C. Utku,  S. P. Veccham,  O. Vydrov,  Rahel Weiss,  
 J. Wenzel,  Jonathan Wong,  J. Witte,  H. Wu,  Yanze Wu,  A. Yamada,  
 Chou-Hsun Yang,  Kun Yao,  S. Yeganeh,  S. R. Yost,  Qi Yu,  A. Zech,  
 F. Zeller,  Chongxiao Zhao,  Igor Ying Zhang,  Xing Zhang,  Yu Zhang,  
 D. Zuev,  A. Aspuru-Guzik,  A. T. Bell,  N. A. Besley,  K. B. Bravaya,  
 B. R. Brooks,  D. Casanova,  Jeng-Da Chai,  Hsing-Ta Chen,  S. Coriani,  
 C. J. Cramer,  A. E. DePrince, III,  R. A. DiStasio Jr.,  A. Dreuw,  
 B. D. Dunietz,  T. R. Furlani,  W. A. Goddard III,  S. Grimme,  
 S. Hammes-Schiffer,  T. Head-Gordon,  W. J. Hehre,  Chao-Ping Hsu,  
 T.-C. Jagau,  Yousung Jung,  A. Klamt,  Jing Kong,  D. S. Lambrecht,  
 Xiangyuan Li,  WanZhen Liang,  N. J. Mayhall,  C. W. McCurdy,  J. B. Neaton,  
 T. Neudecker,  C. Ochsenfeld,  J. A. Parkhill,  R. Peverati,  
 V. A. Rassolov,  Haisheng Ren,  Yihan Shao,  L. V. Slipchenko,  
 R. P. Steele,  J. E. Subotnik,  A. J. W. Thom,  A. Tkatchenko,  
 D. G. Truhlar,  T. Van Voorhis,  Fan Wang,  T. A. Wesolowski,  K. B. Whaley,  
 H. L. Woodcock III,  P. M. Zimmerman,  S. Faraji,  P. M. W. Gill,  
 M. Head-Gordon,  J. M. Herbert,  A. I. Krylov

 Contributors to earlier versions of Q-Chem not listed above: 
 R. D. Adamson,  B. Austin,  R. Baer,  J. Baker,  G. J. O. Beran,  
 K. Brandhorst,  S. T. Brown,  E. F. C. Byrd,  Arup K. Chakraborty,  
 G. K. L. Chan,  Chun-Min Chang,  Yunqing Chen,  C.-L. Cheng,  
 Siu Hung Chien,  D. M. Chipman,  D. L. Crittenden,  H. Dachsel,  
 R. J. Doerksen,  A. D. Dutoi,  R. G. Edgar,  J. Fosso-Tande,  
 L. Fusti-Molnar,  D. Ghosh,  A. Ghysels,  A. Golubeva-Zadorozhnaya,  
 J. Gonthier,  M. S. Gordon,  S. R. Gwaltney,  G. Hawkins,  J. E. Herr,  
 A. Heyden,  S. Hirata,  E. G. Hohenstein,  G. Kedziora,  F. J. Keil,  
 C. Kelley,  Jihan Kim,  R. A. King,  R. Z. Khaliullin,  P. P. Korambath,  
 W. Kurlancheek,  A. Laurent,  A. M. Lee,  M. S. Lee,  S. V. Levchenko,  
 Ching Yeh Lin,  D. Liotard,  E. Livshits,  R. C. Lochan,  I. Lotan,  
 L. A. Martinez-Martinez,  P. E. Maslen,  N. Nair,  D. P. O'Neill,  
 D. Neuhauser,  E. Neuscamman,  C. M. Oana,  R. Olivares-Amaya,  R. Olson,  
 T. M. Perrine,  B. Peters,  P. A. Pieniazek,  A. Prociuk,  Y. M. Rhee,  
 J. Ritchie,  M. A. Rohrdanz,  E. Rosta,  N. J. Russ,  H. F. Schaefer III,  
 M. W. Schmidt,  N. E. Schultz,  S. Sharma,  N. Shenvi,  C. D. Sherrill,  
 A. C. Simmonett,  A. Sodt,  T. Stein,  D. Stuck,  K. S. Thanthiriwatte,  
 V. Vanovschi,  L. Vogt,  Tao Wang,  A. Warshel,  M. A. Watson,  
 C. F. Williams,  Q. Wu,  X. Xu,  Jun Yang,  W. Zhang,  Yan Zhao

   Please cite Q-Chem as follows:
  "Software for the frontiers of quantum chemistry:
   An overview of developments in the Q-Chem 5 package"
   J. Chem. Phys. 155, 084801 (2021)
   https://doi.org/10.1063/5.0055522 (open access)

 Q-Chem 6.2.0 for Intel X86 EM64T Linux

 Parts of Q-Chem use Armadillo 9.900.5 (Nocturnal Misbehaviour).
 http://arma.sourceforge.net/

 Q-Chem begins on Tue Nov  5 14:27:45 2024  

 Host: 
0

     Scratch files written to /data/scratch/cf3h_opt_freq20241105142744//
 May224 |scratch|qcdevops|jenkins|workspace|build_RNUM -1
 Processing $rem in /opt/qchem/6.2.0/config/preferences:
 Processing $rem in /home/ymao/.qchemrc:

 Checking the input file for inconsistencies... 	...done.

--------------------------------------------------------------
User input:
--------------------------------------------------------------
$molecule
0 1
H    0.59878    -0.04551   0.00000
C    -0.49895   -0.00740   0.00000
F    -1.02270   -1.24292   0.00000
F    -0.95441   0.63633    1.08615
F    -0.95441   0.63633    -1.08615
$end

$rem
JOBTYPE  OPT
GEN_SCFMAN  TRUE
METHOD  B3LYP
DFT_D  D3_BJ
BASIS  DEF2-SVPD
UNRESTRICTED  FALSE
MAX_SCF_CYCLES  2000
THRESH  14
SCF_CONVERGENCE  9
MEM_TOTAL  8000
MEM_STATIC  2000
SYMMETRY  FALSE
SYM_IGNORE  FALSE
SCF_ALGORITHM  DIIS
BASIS_LIN_DEP_THRESH  6
IDERIV  1
XC_GRID  000075000302
NL_GRID  1
FD_MAT_VEC_PROD  FALSE
GEOM_OPT_TOL_GRADIENT  50
GEOM_OPT_TOL_DISPLACEMENT  50
GEOM_OPT_TOL_ENERGY  10
GEOM_OPT_DRIVER  OPTIMIZE
GEOM_OPT_MAX_CYCLES  200
$end

--------------------------------------------------------------
 Adding empirical dispersion correction 
 ----------------------------------------------------------------
 Doing -D3(BJ) with
 s6  =   1.00000
 s8  =   1.98890
 a1  =   0.39810
 a2  =   4.42110
 ----------------------------------------------------------------
 -D3 energy without 3body term =     -0.0026772461 hartrees
 ----------------------------------------------------------------
             Standard Nuclear Orientation (Angstroms)
    I     Atom           X                Y                Z
 ----------------------------------------------------------------
    1      H       1.4460983943     0.0020041508    -0.0000000000
    2      C       0.3477087914     0.0000534067     0.0000000000
    3      F      -0.1306320236    -1.2537463371     0.0000000000
    4      F      -0.1309257183     0.6267440246     1.0861500000
    5      F      -0.1309257183     0.6267440246    -1.0861500000
 ----------------------------------------------------------------
 Molecular Point Group                 Cs    NOp =  2
 Largest Abelian Subgroup              Cs    NOp =  2
 Nuclear Repulsion Energy =         133.06098338 hartrees
 There are       17 alpha and       17 beta electrons
 Requested basis set is def2-SVPD
 There are 39 shells and 97 basis functions

 Total QAlloc Memory Limit   8000 MB
 Mega-Array Size      1956 MB
 MEM_STATIC part      2000 MB

 A cutoff of  1.0D-14 yielded    777 shell pairs
 There are      4869 function pairs (      5721 Cartesian)
 Smallest overlap matrix eigenvalue = 7.56E-04

 Scale SEOQF with 1.000000e-01/1.000000e-01/1.000000e-01

 Standard Electronic Orientation quadrupole field applied
 Nucleus-field energy     =    -0.0000000006 hartrees
 Guess from superposition of atomic densities
 Warning:  Energy on first SCF cycle will be non-variational
 SAD guess density has 34.000000 electrons

 -----------------------------------------------------------------------
  General SCF calculation program by
  Eric Jon Sundstrom, Paul Horn, Yuezhi Mao, Dmitri Zuev, Alec White,
  David Stuck, Shaama M.S., Shane Yost, Joonho Lee, David Small,
  Daniel Levine, Susi Lehtola, Hugh Burton, Evgeny Epifanovsky,
  Bang C. Huynh
 -----------------------------------------------------------------------
 Exchange:     0.2000 Hartree-Fock + 0.0800 Slater + 0.7200 B88
 Correlation:  0.1900 VWN1RPA + 0.8100 LYP
 Using Euler-Maclaurin-Lebedev (75,302) quadrature formula
 Dispersion:   Grimme D3
 using 8 threads for integral computing
 -------------------------------------------------------
 OpenMP Integral computing Module                
 Release: version 1.0, May 2013, Q-Chem Inc. Pittsburgh 
 -------------------------------------------------------
 A restricted SCF calculation will be
 performed using DIIS
 SCF converges when DIIS error is below 1.0e-09
 ---------------------------------------
  Cycle       Energy         DIIS error
 ---------------------------------------
    1    -338.5231335228      5.76e-02  
    2    -337.9407398393      9.30e-03  
    3    -337.8619141058      1.40e-02  
    4    -338.0075746083      4.43e-04  
    5    -338.0077000060      1.45e-04  
    6    -338.0077170042      3.03e-05  
    7    -338.0077180071      2.08e-06  
    8    -338.0077180093      1.52e-06  
    9    -338.0077180108      4.51e-07  
   10    -338.0077180110      2.45e-08  
   11    -338.0077180110      1.99e-09  
   12    -338.0077180110      1.31e-10  Convergence criterion met
 ---------------------------------------
 SCF time:   CPU 22.74s  wall 3.00s 
 SCF   energy =  -338.00771801
 Total energy =  -338.00771801
 
 --------------------------------------------------------------
             Orbital Energies (a.u.) and Symmetries
 --------------------------------------------------------------
 
 Alpha MOs, Restricted
 -- Occupied --                  
-24.747 -24.747 -24.747 -10.457  -1.319  -1.229  -1.229  -0.729
  1 A'    2 A'    1 A"    3 A'    4 A'    5 A'    2 A"    6 A'                 
 -0.626  -0.613  -0.613  -0.491  -0.491  -0.455  -0.455  -0.433
  7 A'    8 A'    3 A"    4 A"    9 A'   10 A'    5 A"    6 A"                 
 -0.418
 11 A'                                                                         
 -- Virtual --                   
  0.016   0.059   0.062   0.062   0.132   0.132   0.145   0.154
 12 A'   13 A'   14 A'    7 A"   15 A'    8 A"   16 A'   17 A'                 
  0.154   0.170   0.170   0.203   0.225   0.250   0.293   0.293
  9 A"   18 A'   10 A"   19 A'   20 A'   11 A"   12 A"   21 A'                 
  0.295   0.364   0.382   0.382   0.391   0.391   0.391   0.500
 22 A'   23 A'   24 A'   13 A"   14 A"   25 A'   26 A'   27 A'                 
  0.500   0.579   0.617   0.617   0.631   0.677   0.677   0.682
 15 A"   28 A'   29 A'   16 A"   30 A'   17 A"   31 A'   32 A'                 
  0.727   0.736   0.736   0.770   0.770   0.837   0.857   0.857
 18 A"   33 A'   19 A"   20 A"   34 A'   21 A"   22 A"   35 A'                 
  0.943   0.981   0.981   1.023   1.100   1.478   1.479   1.616
 36 A'   23 A"   37 A'   38 A'   39 A'   40 A'   24 A"   41 A'                 
  1.616   1.687   1.687   1.706   1.729   1.927   1.974   2.029
 25 A"   42 A'   26 A"   27 A"   43 A'   44 A'   45 A'   28 A"                 
  2.029   2.076   2.076   2.174   2.174   2.269   2.269   2.270
 46 A'   29 A"   47 A'   30 A"   48 A'   31 A"   49 A'   50 A'                 
  2.828   3.228   3.290   3.298   3.298   3.306   3.306   3.345
 51 A'   32 A"   33 A"   52 A'   34 A"   53 A'   35 A"   54 A'                 
  3.355   3.356   3.483   3.655   3.656   3.733   3.928   3.929
 36 A"   55 A'   56 A'   57 A'   37 A"   58 A'   38 A"   59 A'                 
 
 Beta MOs, Restricted
 -- Occupied --                  
-24.747 -24.747 -24.747 -10.457  -1.319  -1.229  -1.229  -0.729
  1 A'    2 A'    1 A"    3 A'    4 A'    5 A'    2 A"    6 A'                 
 -0.626  -0.613  -0.613  -0.491  -0.491  -0.455  -0.455  -0.433
  7 A'    8 A'    3 A"    4 A"    9 A'   10 A'    5 A"    6 A"                 
 -0.418
 11 A'                                                                         
 -- Virtual --                   
  0.016   0.059   0.062   0.062   0.132   0.132   0.145   0.154
 12 A'   13 A'   14 A'    7 A"   15 A'    8 A"   16 A'   17 A'                 
  0.154   0.170   0.170   0.203   0.225   0.250   0.293   0.293
  9 A"   18 A'   10 A"   19 A'   20 A'   11 A"   12 A"   21 A'                 
  0.295   0.364   0.382   0.382   0.391   0.391   0.391   0.500
 22 A'   23 A'   24 A'   13 A"   14 A"   25 A'   26 A'   27 A'                 
  0.500   0.579   0.617   0.617   0.631   0.677   0.677   0.682
 15 A"   28 A'   29 A'   16 A"   30 A'   17 A"   31 A'   32 A'                 
  0.727   0.736   0.736   0.770   0.770   0.837   0.857   0.857
 18 A"   33 A'   19 A"   20 A"   34 A'   21 A"   22 A"   35 A'                 
  0.943   0.981   0.981   1.023   1.100   1.478   1.479   1.616
 36 A'   23 A"   37 A'   38 A'   39 A'   40 A'   24 A"   41 A'                 
  1.616   1.687   1.687   1.706   1.729   1.927   1.974   2.029
 25 A"   42 A'   26 A"   27 A"   43 A'   44 A'   45 A'   28 A"                 
  2.029   2.076   2.076   2.174   2.174   2.269   2.269   2.270
 46 A'   29 A"   47 A'   30 A"   48 A'   31 A"   49 A'   50 A'                 
  2.828   3.228   3.290   3.298   3.298   3.306   3.306   3.345
 51 A'   32 A"   33 A"   52 A'   34 A"   53 A'   35 A"   54 A'                 
  3.355   3.356   3.483   3.655   3.656   3.733   3.928   3.929
 36 A"   55 A'   56 A'   57 A'   37 A"   58 A'   38 A"   59 A'                 
 --------------------------------------------------------------
 
          Ground-State Mulliken Net Atomic Charges

     Atom                 Charge (a.u.)
  ----------------------------------------
      1 H                    -0.342338
      2 C                     1.435956
      3 F                    -0.364265
      4 F                    -0.364676
      5 F                    -0.364676
  ----------------------------------------
  Sum of atomic charges =     0.000000

 -----------------------------------------------------------------
                    Cartesian Multipole Moments
 -----------------------------------------------------------------
    Charge (ESU x 10^10)
                 0.0000
    Dipole Moment (Debye)
         X       1.7110      Y      -0.0002      Z       0.0000
       Tot       1.7110
    Quadrupole Moments (Debye-Ang)
        XX     -18.8766     XY       0.0033     YY     -22.6712
        XZ      -0.0000     YZ       0.0000     ZZ     -22.6749
    Octopole Moments (Debye-Ang^2)
       XXX       0.2537    XXY       0.0032    XYY      -0.6988
       YYY       1.1890    XXZ      -0.0000    XYZ      -0.0000
       YYZ      -0.0000    XZZ      -0.6978    YZZ      -1.1970
       ZZZ      -0.0000
    Hexadecapole Moments (Debye-Ang^3)
      XXXX     -25.2718   XXXY       0.0078   XXYY     -19.0413
      XYYY       0.4597   YYYY     -87.2198   XXXZ       0.0000
      XXYZ      -0.0000   XYYZ      -0.0000   YYYZ      -0.0000
      XXZZ     -19.0520   XYZZ      -0.4591   YYZZ     -29.0853
      XZZZ      -0.0000   YZZZ       0.0000   ZZZZ     -87.2867
 -----------------------------------------------------------------
 Calculating analytic gradient of the SCF energy
 Gradient of SCF Energy
            1           2           3           4           5
    1   0.0002874   0.0078826  -0.0028395  -0.0026652  -0.0026652
    2   0.0001935  -0.0002535   0.0001055  -0.0000228  -0.0000228
    3  -0.0000000  -0.0000000   0.0000000   0.0000383  -0.0000383
 Max gradient component =       7.883E-03
 RMS gradient           =       2.375E-03
 Gradient time:  CPU 7.25 s  wall 0.91 s
 Geometry Optimization Parameters
   NAtoms,    NIC,     NZ,  NCons,   NDum,   NFix, NCnnct, MaxDiis
        5      20       0       0       0       0       0       0


** GEOMETRY OPTIMIZATION IN DELOCALIZED INTERNAL COORDINATES **
   Searching for a Minimum

   Optimization Cycle:   1

                       Coordinates (Angstroms)
     ATOM                X               Y               Z
      1  H         1.4460983943    0.0020041508    0.0000000000
      2  C         0.3477087914    0.0000534067    0.0000000000
      3  F        -0.1306320236   -1.2537463371    0.0000000000
      4  F        -0.1309257183    0.6267440246    1.0861500000
      5  F        -0.1309257183    0.6267440246   -1.0861500000
   Point Group: cs    Number of degrees of freedom:     6


   Energy is   -338.007718011


 Attempting to generate delocalized internal coordinates
 Initial Hessian constructed with Jon Baker's OPTIMIZE code

  6 Hessian modes will be used to form the next step
  Hessian Eigenvalues:
     0.160000    0.207232    0.250000    0.338606    0.567104    0.567707

 Minimum search - taking simple RFO step
 Searching for Lamda that Minimizes Along All modes
 Value Taken    Lamda =  -0.00029353
 Step Taken.  Stepsize is  0.037422

                             Maximum     Tolerance    Cnvgd?
         Gradient           0.006336      0.000050      NO
         Displacement       0.031643      0.000050      NO
         Energy change     *********      0.000000      NO


 New Cartesian Coordinates Obtained by Inverse Iteration

 Displacement from previous Coordinates is:  0.044859
 Adding empirical dispersion correction 
 ----------------------------------------------------------------
 Doing -D3(BJ) with
 s6  =   1.00000
 s8  =   1.98890
 a1  =   0.39810
 a2  =   4.42110
 ----------------------------------------------------------------
 -D3 energy without 3body term =     -0.0026766305 hartrees
 ----------------------------------------------------------------
             Standard Nuclear Orientation (Angstroms)
    I     Atom           X                Y                Z
 ----------------------------------------------------------------
    1      H       1.4342923453     0.0010424539     0.0000000000
    2      C       0.3363504340     0.0003933849     0.0000000000
    3      F      -0.1222037139    -1.2598723136     0.0000000000
    4      F      -0.1235576700     0.6301178722     1.0913547425
    5      F      -0.1235576700     0.6301178722    -1.0913547425
 ----------------------------------------------------------------
 Molecular Point Group                 Cs    NOp =  2
 Largest Abelian Subgroup              Cs    NOp =  2
 Nuclear Repulsion Energy =         132.85468891 hartrees
 There are       17 alpha and       17 beta electrons
 Applying Cartesian multipole field
    Component          Value
    ---------          -----
     (2,0,0)        1.00000E-11
     (0,2,0)        2.00000E-11
     (0,0,2)       -3.00000E-11
 Nucleus-field energy     =    -0.0000000007 hartrees
 Requested basis set is def2-SVPD
 There are 39 shells and 97 basis functions
 A cutoff of  1.0D-14 yielded    777 shell pairs
 There are      4869 function pairs (      5721 Cartesian)
 Smallest overlap matrix eigenvalue = 7.51E-04
 Guess MOs from SCF MO coefficient file

 -----------------------------------------------------------------------
  General SCF calculation program by
  Eric Jon Sundstrom, Paul Horn, Yuezhi Mao, Dmitri Zuev, Alec White,
  David Stuck, Shaama M.S., Shane Yost, Joonho Lee, David Small,
  Daniel Levine, Susi Lehtola, Hugh Burton, Evgeny Epifanovsky,
  Bang C. Huynh
 -----------------------------------------------------------------------
 Exchange:     0.2000 Hartree-Fock + 0.0800 Slater + 0.7200 B88
 Correlation:  0.1900 VWN1RPA + 0.8100 LYP
 Using Euler-Maclaurin-Lebedev (75,302) quadrature formula
 Dispersion:   Grimme D3
 A restricted SCF calculation will be
 performed using DIIS
 SCF converges when DIIS error is below 1.0e-09
 ---------------------------------------
  Cycle       Energy         DIIS error
 ---------------------------------------
    1    -338.0074750762      5.83e-04  
    2    -338.0077589874      5.60e-05  
    3    -338.0077607778      5.13e-05  
    4    -338.0077625634      1.41e-05  
    5    -338.0077627171      1.70e-06  
    6    -338.0077627193      4.47e-07  
    7    -338.0077627195      1.53e-07  
    8    -338.0077627195      3.15e-08  
    9    -338.0077627195      3.63e-09  
   10    -338.0077627195      2.40e-10  Convergence criterion met
 ---------------------------------------
 SCF time:   CPU 19.05s  wall 2.00s 
 SCF   energy =  -338.00776272
 Total energy =  -338.00776272
 
 --------------------------------------------------------------
             Orbital Energies (a.u.) and Symmetries
 --------------------------------------------------------------
 
 Alpha MOs, Restricted
 -- Occupied --                  
-24.749 -24.749 -24.749 -10.457  -1.319  -1.231  -1.231  -0.729
  1 A'    2 A'    1 A"    3 A'    4 A'    5 A'    2 A"    6 A'                 
 -0.625  -0.614  -0.614  -0.492  -0.492  -0.457  -0.457  -0.435
  7 A'    8 A'    3 A"    4 A"    9 A'   10 A'    5 A"    6 A"                 
 -0.415
 11 A'                                                                         
 -- Virtual --                   
  0.016   0.059   0.063   0.063   0.133   0.133   0.145   0.153
 12 A'   13 A'    7 A"   14 A'    8 A"   15 A'   16 A'    9 A"                 
  0.153   0.171   0.171   0.196   0.223   0.250   0.293   0.293
 17 A'   10 A"   18 A'   19 A'   20 A'   11 A"   12 A"   21 A'                 
  0.297   0.361   0.382   0.382   0.392   0.392   0.392   0.499
 22 A'   23 A'   13 A"   24 A'   14 A"   25 A'   26 A'   27 A'                 
  0.499   0.581   0.617   0.617   0.632   0.676   0.676   0.688
 15 A"   28 A'   16 A"   29 A'   30 A'   31 A'   17 A"   32 A'                 
  0.725   0.734   0.734   0.769   0.769   0.839   0.860   0.860
 18 A"   33 A'   19 A"   20 A"   34 A'   21 A"   35 A'   22 A"                 
  0.942   0.978   0.978   1.023   1.092   1.481   1.481   1.615
 36 A'   23 A"   37 A'   38 A'   39 A'   24 A"   40 A'   25 A"                 
  1.615   1.688   1.688   1.695   1.734   1.940   1.969   2.027
 41 A'   26 A"   42 A'   27 A"   43 A'   44 A'   45 A'   28 A"                 
  2.027   2.080   2.080   2.174   2.174   2.267   2.271   2.271
 46 A'   29 A"   47 A'   48 A'   30 A"   49 A'   50 A'   31 A"                 
  2.833   3.230   3.290   3.297   3.297   3.311   3.311   3.346
 51 A'   32 A"   33 A"   52 A'   34 A"   53 A'   35 A"   54 A'                 
  3.357   3.357   3.465   3.655   3.655   3.745   3.925   3.926
 55 A'   36 A"   56 A'   57 A'   37 A"   58 A'   38 A"   59 A'                 
 
 Beta MOs, Restricted
 -- Occupied --                  
-24.749 -24.749 -24.749 -10.457  -1.319  -1.231  -1.231  -0.729
  1 A'    2 A'    1 A"    3 A'    4 A'    5 A'    2 A"    6 A'                 
 -0.625  -0.614  -0.614  -0.492  -0.492  -0.457  -0.457  -0.435
  7 A'    8 A'    3 A"    4 A"    9 A'   10 A'    5 A"    6 A"                 
 -0.415
 11 A'                                                                         
 -- Virtual --                   
  0.016   0.059   0.063   0.063   0.133   0.133   0.145   0.153
 12 A'   13 A'    7 A"   14 A'    8 A"   15 A'   16 A'    9 A"                 
  0.153   0.171   0.171   0.196   0.223   0.250   0.293   0.293
 17 A'   10 A"   18 A'   19 A'   20 A'   11 A"   12 A"   21 A'                 
  0.297   0.361   0.382   0.382   0.392   0.392   0.392   0.499
 22 A'   23 A'   13 A"   24 A'   14 A"   25 A'   26 A'   27 A'                 
  0.499   0.581   0.617   0.617   0.632   0.676   0.676   0.688
 15 A"   28 A'   16 A"   29 A'   30 A'   31 A'   17 A"   32 A'                 
  0.725   0.734   0.734   0.769   0.769   0.839   0.860   0.860
 18 A"   33 A'   19 A"   20 A"   34 A'   21 A"   35 A'   22 A"                 
  0.942   0.978   0.978   1.023   1.092   1.481   1.481   1.615
 36 A'   23 A"   37 A'   38 A'   39 A'   24 A"   40 A'   25 A"                 
  1.615   1.688   1.688   1.695   1.734   1.940   1.969   2.027
 41 A'   26 A"   42 A'   27 A"   43 A'   44 A'   45 A'   28 A"                 
  2.027   2.080   2.080   2.174   2.174   2.267   2.271   2.271
 46 A'   29 A"   47 A'   48 A'   30 A"   49 A'   50 A'   31 A"                 
  2.833   3.230   3.290   3.297   3.297   3.311   3.311   3.346
 51 A'   32 A"   33 A"   52 A'   34 A"   53 A'   35 A"   54 A'                 
  3.357   3.357   3.465   3.655   3.655   3.745   3.925   3.926
 55 A'   36 A"   56 A'   57 A'   37 A"   58 A'   38 A"   59 A'                 
 --------------------------------------------------------------
 
          Ground-State Mulliken Net Atomic Charges

     Atom                 Charge (a.u.)
  ----------------------------------------
      1 H                    -0.344818
      2 C                     1.439861
      3 F                    -0.364906
      4 F                    -0.365068
      5 F                    -0.365068
  ----------------------------------------
  Sum of atomic charges =     0.000000

 -----------------------------------------------------------------
                    Cartesian Multipole Moments
 -----------------------------------------------------------------
    Charge (ESU x 10^10)
                -0.0000
    Dipole Moment (Debye)
         X       1.6234      Y       0.0002      Z       0.0000
       Tot       1.6234
    Quadrupole Moments (Debye-Ang)
        XX     -18.9681     XY       0.0027     YY     -22.6628
        XZ       0.0000     YZ      -0.0000     ZZ     -22.6642
    Octopole Moments (Debye-Ang^2)
       XXX      -0.0535    XXY      -0.0035    XYY      -0.7427
       YYY       1.1678    XXZ       0.0000    XYZ       0.0000
       YYZ       0.0000    XZZ      -0.7411    YZZ      -1.1903
       ZZZ       0.0000
    Hexadecapole Moments (Debye-Ang^3)
      XXXX     -25.0793   XXXY       0.0232   XXYY     -19.1080
      XYYY       0.4576   YYYY     -87.7894   XXXZ       0.0000
      XXYZ       0.0000   XYYZ       0.0000   YYYZ       0.0000
      XXZZ     -19.1111   XYZZ      -0.4282   YYZZ     -29.2693
      XZZZ       0.0000   YZZZ       0.0000   ZZZZ     -87.8175
 -----------------------------------------------------------------
 Calculating analytic gradient of the SCF energy
 Gradient of SCF Energy
            1           2           3           4           5
    1  -0.0004821  -0.0034686   0.0013581   0.0012963   0.0012963
    2  -0.0000268  -0.0001123  -0.0016849   0.0009120   0.0009120
    3  -0.0000000   0.0000000  -0.0000000   0.0016057  -0.0016057
 Max gradient component =       3.469E-03
 RMS gradient           =       1.345E-03
 Gradient time:  CPU 7.20 s  wall 0.91 s
 Geometry Optimization Parameters
   NAtoms,    NIC,     NZ,  NCons,   NDum,   NFix, NCnnct, MaxDiis
        5      20       0       0       0       0       0       0

 Cartesian Hessian Update
 Hessian updated using BFGS update


** GEOMETRY OPTIMIZATION IN DELOCALIZED INTERNAL COORDINATES **
   Searching for a Minimum

   Optimization Cycle:   2

                       Coordinates (Angstroms)
     ATOM                X               Y               Z
      1  H         1.4342923453    0.0010424539    0.0000000000
      2  C         0.3363504340    0.0003933849    0.0000000000
      3  F        -0.1222037139   -1.2598723136    0.0000000000
      4  F        -0.1235576700    0.6301178722    1.0913547425
      5  F        -0.1235576700    0.6301178722   -1.0913547425
   Point Group: cs    Number of degrees of freedom:     6


   Energy is   -338.007762719

 Hessian updated using BFGS update

  6 Hessian modes will be used to form the next step
  Hessian Eigenvalues:
     0.159870    0.249964    0.331258    0.357204    0.567534    0.573944

 Minimum search - taking simple RFO step
 Searching for Lamda that Minimizes Along All modes
 Value Taken    Lamda =  -0.00009190
 Step Taken.  Stepsize is  0.015417

                             Maximum     Tolerance    Cnvgd?
         Gradient           0.005677      0.000050      NO
         Displacement       0.014069      0.000050      NO
         Energy change     -0.000045      0.000000      NO


 New Cartesian Coordinates Obtained by Inverse Iteration

 Displacement from previous Coordinates is:  0.019617
 Adding empirical dispersion correction 
 ----------------------------------------------------------------
 Doing -D3(BJ) with
 s6  =   1.00000
 s8  =   1.98890
 a1  =   0.39810
 a2  =   4.42110
 ----------------------------------------------------------------
 -D3 energy without 3body term =     -0.0026771867 hartrees
 ----------------------------------------------------------------
             Standard Nuclear Orientation (Angstroms)
    I     Atom           X                Y                Z
 ----------------------------------------------------------------
    1      H       1.4391237756     0.0010913418     0.0000000000
    2      C       0.3407500133     0.0003784887     0.0000000000
    3      F      -0.1253168495    -1.2564532021     0.0000000000
    4      F      -0.1266166070     0.6283913206     1.0882724872
    5      F      -0.1266166070     0.6283913206    -1.0882724872
 ----------------------------------------------------------------
 Molecular Point Group                 Cs    NOp =  2
 Largest Abelian Subgroup              Cs    NOp =  2
 Nuclear Repulsion Energy =         133.03655171 hartrees
 There are       17 alpha and       17 beta electrons
 Applying Cartesian multipole field
    Component          Value
    ---------          -----
     (2,0,0)        1.00000E-11
     (0,2,0)        2.00000E-11
     (0,0,2)       -3.00000E-11
 Nucleus-field energy     =    -0.0000000006 hartrees
 Requested basis set is def2-SVPD
 There are 39 shells and 97 basis functions
 A cutoff of  1.0D-14 yielded    777 shell pairs
 There are      4869 function pairs (      5721 Cartesian)
 Smallest overlap matrix eigenvalue = 7.53E-04
 Guess MOs from SCF MO coefficient file

 -----------------------------------------------------------------------
  General SCF calculation program by
  Eric Jon Sundstrom, Paul Horn, Yuezhi Mao, Dmitri Zuev, Alec White,
  David Stuck, Shaama M.S., Shane Yost, Joonho Lee, David Small,
  Daniel Levine, Susi Lehtola, Hugh Burton, Evgeny Epifanovsky,
  Bang C. Huynh
 -----------------------------------------------------------------------
 Exchange:     0.2000 Hartree-Fock + 0.0800 Slater + 0.7200 B88
 Correlation:  0.1900 VWN1RPA + 0.8100 LYP
 Using Euler-Maclaurin-Lebedev (75,302) quadrature formula
 Dispersion:   Grimme D3
 A restricted SCF calculation will be
 performed using DIIS
 SCF converges when DIIS error is below 1.0e-09
 ---------------------------------------
  Cycle       Energy         DIIS error
 ---------------------------------------
    1    -338.0077596882      2.41e-04  
    2    -338.0078079566      2.82e-05  
    3    -338.0078081020      3.02e-05  
    4    -338.0078088019      5.75e-06  
    5    -338.0078088254      1.48e-06  
    6    -338.0078088273      2.41e-07  
    7    -338.0078088274      1.58e-08  
    8    -338.0078088274      4.03e-09  
    9    -338.0078088274      3.67e-09  
   10    -338.0078088274      1.60e-10  Convergence criterion met
 ---------------------------------------
 SCF time:   CPU 18.96s  wall 3.00s 
 SCF   energy =  -338.00780883
 Total energy =  -338.00780883
 
 --------------------------------------------------------------
             Orbital Energies (a.u.) and Symmetries
 --------------------------------------------------------------
 
 Alpha MOs, Restricted
 -- Occupied --                  
-24.748 -24.748 -24.748 -10.457  -1.320  -1.230  -1.230  -0.729
  1 A'    2 A'    1 A"    3 A'    4 A'    5 A'    2 A"    6 A'                 
 -0.626  -0.614  -0.614  -0.492  -0.492  -0.456  -0.456  -0.434
  7 A'    8 A'    3 A"    4 A"    9 A'   10 A'    5 A"    6 A"                 
 -0.416
 11 A'                                                                         
 -- Virtual --                   
  0.016   0.059   0.063   0.063   0.133   0.133   0.145   0.153
 12 A'   13 A'    7 A"   14 A'    8 A"   15 A'   16 A'    9 A"                 
  0.153   0.171   0.171   0.200   0.224   0.250   0.293   0.293
 17 A'   10 A"   18 A'   19 A'   20 A'   11 A"   12 A"   21 A'                 
  0.297   0.362   0.382   0.382   0.392   0.392   0.392   0.499
 22 A'   23 A'   24 A'   13 A"   14 A"   25 A'   26 A'   15 A"                 
  0.499   0.581   0.617   0.617   0.632   0.676   0.676   0.685
 27 A'   28 A'   29 A'   16 A"   30 A'   31 A'   17 A"   32 A'                 
  0.726   0.735   0.735   0.770   0.770   0.838   0.859   0.859
 18 A"   33 A'   19 A"   20 A"   34 A'   21 A"   35 A'   22 A"                 
  0.943   0.980   0.980   1.023   1.096   1.480   1.480   1.616
 36 A'   37 A'   23 A"   38 A'   39 A'   24 A"   40 A'   25 A"                 
  1.616   1.688   1.688   1.701   1.732   1.935   1.971   2.029
 41 A'   26 A"   42 A'   27 A"   43 A'   44 A'   45 A'   28 A"                 
  2.029   2.080   2.080   2.173   2.173   2.267   2.270   2.270
 46 A'   29 A"   47 A'   48 A'   30 A"   49 A'   50 A'   31 A"                 
  2.831   3.228   3.290   3.297   3.297   3.309   3.309   3.346
 51 A'   32 A"   33 A"   52 A'   34 A"   35 A"   53 A'   54 A'                 
  3.357   3.357   3.473   3.657   3.657   3.742   3.928   3.928
 36 A"   55 A'   56 A'   57 A'   37 A"   58 A'   38 A"   59 A'                 
 
 Beta MOs, Restricted
 -- Occupied --                  
-24.748 -24.748 -24.748 -10.457  -1.320  -1.230  -1.230  -0.729
  1 A'    2 A'    1 A"    3 A'    4 A'    5 A'    2 A"    6 A'                 
 -0.626  -0.614  -0.614  -0.492  -0.492  -0.456  -0.456  -0.434
  7 A'    8 A'    3 A"    4 A"    9 A'   10 A'    5 A"    6 A"                 
 -0.416
 11 A'                                                                         
 -- Virtual --                   
  0.016   0.059   0.063   0.063   0.133   0.133   0.145   0.153
 12 A'   13 A'    7 A"   14 A'    8 A"   15 A'   16 A'    9 A"                 
  0.153   0.171   0.171   0.200   0.224   0.250   0.293   0.293
 17 A'   10 A"   18 A'   19 A'   20 A'   11 A"   12 A"   21 A'                 
  0.297   0.362   0.382   0.382   0.392   0.392   0.392   0.499
 22 A'   23 A'   24 A'   13 A"   14 A"   25 A'   26 A'   15 A"                 
  0.499   0.581   0.617   0.617   0.632   0.676   0.676   0.685
 27 A'   28 A'   29 A'   16 A"   30 A'   31 A'   17 A"   32 A'                 
  0.726   0.735   0.735   0.770   0.770   0.838   0.859   0.859
 18 A"   33 A'   19 A"   20 A"   34 A'   21 A"   35 A'   22 A"                 
  0.943   0.980   0.980   1.023   1.096   1.480   1.480   1.616
 36 A'   37 A'   23 A"   38 A'   39 A'   24 A"   40 A'   25 A"                 
  1.616   1.688   1.688   1.701   1.732   1.935   1.971   2.029
 41 A'   26 A"   42 A'   27 A"   43 A'   44 A'   45 A'   28 A"                 
  2.029   2.080   2.080   2.173   2.173   2.267   2.270   2.270
 46 A'   29 A"   47 A'   48 A'   30 A"   49 A'   50 A'   31 A"                 
  2.831   3.228   3.290   3.297   3.297   3.309   3.309   3.346
 51 A'   32 A"   33 A"   52 A'   34 A"   35 A"   53 A'   54 A'                 
  3.357   3.357   3.473   3.657   3.657   3.742   3.928   3.928
 36 A"   55 A'   56 A'   57 A'   37 A"   58 A'   38 A"   59 A'                 
 --------------------------------------------------------------
 
          Ground-State Mulliken Net Atomic Charges

     Atom                 Charge (a.u.)
  ----------------------------------------
      1 H                    -0.343885
      2 C                     1.436501
      3 F                    -0.364142
      4 F                    -0.364237
      5 F                    -0.364237
  ----------------------------------------
  Sum of atomic charges =     0.000000

 -----------------------------------------------------------------
                    Cartesian Multipole Moments
 -----------------------------------------------------------------
    Charge (ESU x 10^10)
                -0.0000
    Dipole Moment (Debye)
         X       1.6556      Y       0.0005      Z       0.0000
       Tot       1.6556
    Quadrupole Moments (Debye-Ang)
        XX     -18.9338     XY       0.0028     YY     -22.6606
        XZ       0.0000     YZ      -0.0000     ZZ     -22.6613
    Octopole Moments (Debye-Ang^2)
       XXX       0.0596    XXY      -0.0029    XYY      -0.7252
       YYY       1.1724    XXZ       0.0000    XYZ      -0.0000
       YYZ       0.0000    XZZ      -0.7236    YZZ      -1.1927
       ZZZ       0.0000
    Hexadecapole Moments (Debye-Ang^3)
      XXXX     -25.1724   XXXY       0.0224   XXYY     -19.0629
      XYYY       0.4650   YYYY     -87.4469   XXXZ       0.0000
      XXYZ      -0.0000   XYYZ       0.0000   YYYZ      -0.0000
      XXZZ     -19.0633   XYZZ      -0.4371   YYZZ     -29.1524
      XZZZ       0.0000   YZZZ      -0.0000   ZZZZ     -87.4591
 -----------------------------------------------------------------
 Calculating analytic gradient of the SCF energy
 Gradient of SCF Energy
            1           2           3           4           5
    1  -0.0000737   0.0002324  -0.0000353  -0.0000617  -0.0000617
    2  -0.0000093  -0.0000919  -0.0000652   0.0000832   0.0000832
    3  -0.0000000   0.0000000  -0.0000000   0.0001317  -0.0001317
 Max gradient component =       2.324E-04
 RMS gradient           =       9.296E-05
 Gradient time:  CPU 7.23 s  wall 0.91 s
 Geometry Optimization Parameters
   NAtoms,    NIC,     NZ,  NCons,   NDum,   NFix, NCnnct, MaxDiis
        5      20       0       0       0       0       0       0

 Cartesian Hessian Update
 Hessian updated using BFGS update


** GEOMETRY OPTIMIZATION IN DELOCALIZED INTERNAL COORDINATES **
   Searching for a Minimum

   Optimization Cycle:   3

                       Coordinates (Angstroms)
     ATOM                X               Y               Z
      1  H         1.4391237756    0.0010913418    0.0000000000
      2  C         0.3407500133    0.0003784887    0.0000000000
      3  F        -0.1253168495   -1.2564532021    0.0000000000
      4  F        -0.1266166070    0.6283913206    1.0882724872
      5  F        -0.1266166070    0.6283913206   -1.0882724872
   Point Group: cs    Number of degrees of freedom:     6


   Energy is   -338.007808827

 Hessian updated using BFGS update

  6 Hessian modes will be used to form the next step
  Hessian Eigenvalues:
     0.159870    0.249959    0.335564    0.361635    0.557272    0.568005

 Minimum search - taking simple RFO step
 Searching for Lamda that Minimizes Along All modes
 Value Taken    Lamda =  -0.00000013
 Step Taken.  Stepsize is  0.000522

                             Maximum     Tolerance    Cnvgd?
         Gradient           0.000173      0.000050      NO
         Displacement       0.000420      0.000050      NO
         Energy change     -0.000046      0.000000      NO


 New Cartesian Coordinates Obtained by Inverse Iteration

 Displacement from previous Coordinates is:  0.000409
 Adding empirical dispersion correction 
 ----------------------------------------------------------------
 Doing -D3(BJ) with
 s6  =   1.00000
 s8  =   1.98890
 a1  =   0.39810
 a2  =   4.42110
 ----------------------------------------------------------------
 -D3 energy without 3body term =     -0.0026772184 hartrees
 ----------------------------------------------------------------
             Standard Nuclear Orientation (Angstroms)
    I     Atom           X                Y                Z
 ----------------------------------------------------------------
    1      H       1.4391576195     0.0011224429     0.0000000000
    2      C       0.3406670686     0.0003994571     0.0000000000
    3      F      -0.1253315636    -1.2563780960     0.0000000000
    4      F      -0.1265846996     0.6283277328     1.0881688845
    5      F      -0.1265846996     0.6283277328    -1.0881688845
 ----------------------------------------------------------------
 Molecular Point Group                 Cs    NOp =  2
 Largest Abelian Subgroup              Cs    NOp =  2
 Nuclear Repulsion Energy =         133.04781093 hartrees
 There are       17 alpha and       17 beta electrons
 Applying Cartesian multipole field
    Component          Value
    ---------          -----
     (2,0,0)        1.00000E-11
     (0,2,0)        2.00000E-11
     (0,0,2)       -3.00000E-11
 Nucleus-field energy     =    -0.0000000006 hartrees
 Requested basis set is def2-SVPD
 There are 39 shells and 97 basis functions
 A cutoff of  1.0D-14 yielded    777 shell pairs
 There are      4869 function pairs (      5721 Cartesian)
 Smallest overlap matrix eigenvalue = 7.53E-04
 Guess MOs from SCF MO coefficient file

 -----------------------------------------------------------------------
  General SCF calculation program by
  Eric Jon Sundstrom, Paul Horn, Yuezhi Mao, Dmitri Zuev, Alec White,
  David Stuck, Shaama M.S., Shane Yost, Joonho Lee, David Small,
  Daniel Levine, Susi Lehtola, Hugh Burton, Evgeny Epifanovsky,
  Bang C. Huynh
 -----------------------------------------------------------------------
 Exchange:     0.2000 Hartree-Fock + 0.0800 Slater + 0.7200 B88
 Correlation:  0.1900 VWN1RPA + 0.8100 LYP
 Using Euler-Maclaurin-Lebedev (75,302) quadrature formula
 Dispersion:   Grimme D3
 A restricted SCF calculation will be
 performed using DIIS
 SCF converges when DIIS error is below 1.0e-09
 ---------------------------------------
  Cycle       Energy         DIIS error
 ---------------------------------------
    1    -338.0078088689      5.89e-06  
    2    -338.0078089007      1.21e-06  
    3    -338.0078089013      9.50e-07  
    4    -338.0078089021      2.15e-07  
    5    -338.0078089021      5.19e-08  
    6    -338.0078089021      9.13e-09  
    7    -338.0078089021      4.85e-09  
    8    -338.0078089021      1.79e-10  Convergence criterion met
 ---------------------------------------
 SCF time:   CPU 15.27s  wall 2.00s 
 SCF   energy =  -338.00780890
 Total energy =  -338.00780890
 
 --------------------------------------------------------------
             Orbital Energies (a.u.) and Symmetries
 --------------------------------------------------------------
 
 Alpha MOs, Restricted
 -- Occupied --                  
-24.748 -24.748 -24.748 -10.457  -1.320  -1.230  -1.230  -0.729
  1 A'    2 A'    1 A"    3 A'    4 A'    5 A'    2 A"    6 A'                 
 -0.626  -0.614  -0.614  -0.492  -0.492  -0.456  -0.456  -0.434
  7 A'    8 A'    3 A"    4 A"    9 A'   10 A'    5 A"    6 A"                 
 -0.416
 11 A'                                                                         
 -- Virtual --                   
  0.016   0.059   0.063   0.063   0.133   0.133   0.145   0.153
 12 A'   13 A'   14 A'    7 A"    8 A"   15 A'   16 A'    9 A"                 
  0.153   0.171   0.171   0.200   0.224   0.250   0.293   0.293
 17 A'   10 A"   18 A'   19 A'   20 A'   11 A"   12 A"   21 A'                 
  0.297   0.362   0.382   0.382   0.392   0.392   0.392   0.499
 22 A'   23 A'   24 A'   13 A"   25 A'   14 A"   26 A'   27 A'                 
  0.499   0.581   0.617   0.617   0.632   0.676   0.676   0.685
 15 A"   28 A'   29 A'   16 A"   30 A'   31 A'   17 A"   32 A'                 
  0.726   0.735   0.735   0.770   0.770   0.838   0.859   0.859
 18 A"   33 A'   19 A"   20 A"   34 A'   21 A"   35 A'   22 A"                 
  0.943   0.980   0.980   1.023   1.096   1.480   1.480   1.616
 36 A'   23 A"   37 A'   38 A'   39 A'   24 A"   40 A'   25 A"                 
  1.616   1.688   1.688   1.701   1.732   1.935   1.971   2.029
 41 A'   26 A"   42 A'   27 A"   43 A'   44 A'   45 A'   28 A"                 
  2.029   2.080   2.080   2.173   2.173   2.267   2.270   2.270
 46 A'   29 A"   47 A'   48 A'   30 A"   49 A'   50 A'   31 A"                 
  2.831   3.228   3.290   3.297   3.297   3.309   3.309   3.346
 51 A'   32 A"   33 A"   52 A'   34 A"   53 A'   35 A"   54 A'                 
  3.357   3.357   3.474   3.657   3.657   3.742   3.928   3.928
 55 A'   36 A"   56 A'   57 A'   37 A"   58 A'   38 A"   59 A'                 
 
 Beta MOs, Restricted
 -- Occupied --                  
-24.748 -24.748 -24.748 -10.457  -1.320  -1.230  -1.230  -0.729
  1 A'    2 A'    1 A"    3 A'    4 A'    5 A'    2 A"    6 A'                 
 -0.626  -0.614  -0.614  -0.492  -0.492  -0.456  -0.456  -0.434
  7 A'    8 A'    3 A"    4 A"    9 A'   10 A'    5 A"    6 A"                 
 -0.416
 11 A'                                                                         
 -- Virtual --                   
  0.016   0.059   0.063   0.063   0.133   0.133   0.145   0.153
 12 A'   13 A'   14 A'    7 A"    8 A"   15 A'   16 A'    9 A"                 
  0.153   0.171   0.171   0.200   0.224   0.250   0.293   0.293
 17 A'   10 A"   18 A'   19 A'   20 A'   11 A"   12 A"   21 A'                 
  0.297   0.362   0.382   0.382   0.392   0.392   0.392   0.499
 22 A'   23 A'   24 A'   13 A"   25 A'   14 A"   26 A'   27 A'                 
  0.499   0.581   0.617   0.617   0.632   0.676   0.676   0.685
 15 A"   28 A'   29 A'   16 A"   30 A'   31 A'   17 A"   32 A'                 
  0.726   0.735   0.735   0.770   0.770   0.838   0.859   0.859
 18 A"   33 A'   19 A"   20 A"   34 A'   21 A"   35 A'   22 A"                 
  0.943   0.980   0.980   1.023   1.096   1.480   1.480   1.616
 36 A'   23 A"   37 A'   38 A'   39 A'   24 A"   40 A'   25 A"                 
  1.616   1.688   1.688   1.701   1.732   1.935   1.971   2.029
 41 A'   26 A"   42 A'   27 A"   43 A'   44 A'   45 A'   28 A"                 
  2.029   2.080   2.080   2.173   2.173   2.267   2.270   2.270
 46 A'   29 A"   47 A'   48 A'   30 A"   49 A'   50 A'   31 A"                 
  2.831   3.228   3.290   3.297   3.297   3.309   3.309   3.346
 51 A'   32 A"   33 A"   52 A'   34 A"   53 A'   35 A"   54 A'                 
  3.357   3.357   3.474   3.657   3.657   3.742   3.928   3.928
 55 A'   36 A"   56 A'   57 A'   37 A"   58 A'   38 A"   59 A'                 
 --------------------------------------------------------------
 
          Ground-State Mulliken Net Atomic Charges

     Atom                 Charge (a.u.)
  ----------------------------------------
      1 H                    -0.343650
      2 C                     1.436015
      3 F                    -0.364105
      4 F                    -0.364130
      5 F                    -0.364130
  ----------------------------------------
  Sum of atomic charges =     0.000000

 -----------------------------------------------------------------
                    Cartesian Multipole Moments
 -----------------------------------------------------------------
    Charge (ESU x 10^10)
                 0.0000
    Dipole Moment (Debye)
         X       1.6548      Y       0.0010      Z       0.0000
       Tot       1.6548
    Quadrupole Moments (Debye-Ang)
        XX     -18.9345     XY       0.0028     YY     -22.6600
        XZ       0.0000     YZ       0.0000     ZZ     -22.6602
    Octopole Moments (Debye-Ang^2)
       XXX       0.0580    XXY      -0.0024    XYY      -0.7252
       YYY       1.1737    XXZ      -0.0000    XYZ      -0.0000
       YYZ      -0.0000    XZZ      -0.7236    YZZ      -1.1919
       ZZZ      -0.0000
    Hexadecapole Moments (Debye-Ang^3)
      XXXX     -25.1749   XXXY       0.0213   XXYY     -19.0612
      XYYY       0.4636   YYYY     -87.4353   XXXZ       0.0000
      XXYZ      -0.0000   XYYZ      -0.0000   YYYZ      -0.0000
      XXZZ     -19.0608   XYZZ      -0.4372   YYZZ     -29.1476
      XZZZ      -0.0000   YZZZ      -0.0000   ZZZZ     -87.4421
 -----------------------------------------------------------------
 Calculating analytic gradient of the SCF energy
 Gradient of SCF Energy
            1           2           3           4           5
    1  -0.0000076   0.0000264  -0.0000054  -0.0000067  -0.0000067
    2  -0.0000020  -0.0000485   0.0000158   0.0000174   0.0000174
    3  -0.0000000   0.0000000   0.0000000   0.0000195  -0.0000195
 Max gradient component =       4.850E-05
 RMS gradient           =       1.797E-05
 Gradient time:  CPU 7.22 s  wall 0.91 s
 Geometry Optimization Parameters
   NAtoms,    NIC,     NZ,  NCons,   NDum,   NFix, NCnnct, MaxDiis
        5      20       0       0       0       0       0       0

 Cartesian Hessian Update
 Hessian updated using BFGS update


** GEOMETRY OPTIMIZATION IN DELOCALIZED INTERNAL COORDINATES **
   Searching for a Minimum

   Optimization Cycle:   4

                       Coordinates (Angstroms)
     ATOM                X               Y               Z
      1  H         1.4391576195    0.0011224429    0.0000000000
      2  C         0.3406670686    0.0003994571    0.0000000000
      3  F        -0.1253315636   -1.2563780960    0.0000000000
      4  F        -0.1265846996    0.6283277328    1.0881688845
      5  F        -0.1265846996    0.6283277328   -1.0881688845
   Point Group: cs    Number of degrees of freedom:     6


   Energy is   -338.007808902

 Hessian updated using BFGS update

  6 Hessian modes will be used to form the next step
  Hessian Eigenvalues:
     0.159950    0.247952    0.324740    0.358980    0.488516    0.593012

 Minimum search - taking simple RFO step
 Searching for Lamda that Minimizes Along All modes
 Value Taken    Lamda =  -0.00000000
 Step Taken.  Stepsize is  0.000118

                             Maximum     Tolerance    Cnvgd?
         Gradient           0.000032      0.000050     YES
         Displacement       0.000090      0.000050      NO
         Energy change     -0.000000      0.000000     YES


                       Distance Matrix (Angstroms)
             H (  1)   C (  2)   F (  3)   F (  4)
   C (  2)  1.098491
   F (  3)  2.007220  1.340390
   F (  4)  2.007249  1.340421  2.176288
   F (  5)  2.007249  1.340421  2.176288  2.176338
 
 Final energy is   -338.007808902129     


 ******************************
 **  OPTIMIZATION CONVERGED  **
 ******************************

                       Coordinates (Angstroms)
     ATOM                X               Y               Z
      1  H         1.4391576195    0.0011224429    0.0000000000
      2  C         0.3406670686    0.0003994571    0.0000000000
      3  F        -0.1253315636   -1.2563780960    0.0000000000
      4  F        -0.1265846996    0.6283277328    1.0881688845
      5  F        -0.1265846996    0.6283277328   -1.0881688845

Z-matrix Print:
$molecule
0 1
C 
H  1 1.098491
F  1 1.340390 2 110.381910
F  1 1.340421 2 110.381984 3 -119.999252 0
F  1 1.340421 2 110.381984 3 119.999252 0
$end

 
 --------------------------------------------------------------
             Orbital Energies (a.u.) and Symmetries
 --------------------------------------------------------------
 
 Alpha MOs, Restricted
 -- Occupied --                  
-24.748 -24.748 -24.748 -10.457  -1.320  -1.230  -1.230  -0.729
  1 A'    2 A'    1 A"    3 A'    4 A'    5 A'    2 A"    6 A'                 
 -0.626  -0.614  -0.614  -0.492  -0.492  -0.456  -0.456  -0.434
  7 A'    8 A'    3 A"    4 A"    9 A'   10 A'    5 A"    6 A"                 
 -0.416
 11 A'                                                                         
 -- Virtual --                   
  0.016   0.059   0.063   0.063   0.133   0.133   0.145   0.153
 12 A'   13 A'   14 A'    7 A"    8 A"   15 A'   16 A'    9 A"                 
  0.153   0.171   0.171   0.200   0.224   0.250   0.293   0.293
 17 A'   10 A"   18 A'   19 A'   20 A'   11 A"   12 A"   21 A'                 
  0.297   0.362   0.382   0.382   0.392   0.392   0.392   0.499
 22 A'   23 A'   24 A'   13 A"   25 A'   14 A"   26 A'   27 A'                 
  0.499   0.581   0.617   0.617   0.632   0.676   0.676   0.685
 15 A"   28 A'   29 A'   16 A"   30 A'   31 A'   17 A"   32 A'                 
  0.726   0.735   0.735   0.770   0.770   0.838   0.859   0.859
 18 A"   33 A'   19 A"   20 A"   34 A'   21 A"   35 A'   22 A"                 
  0.943   0.980   0.980   1.023   1.096   1.480   1.480   1.616
 36 A'   23 A"   37 A'   38 A'   39 A'   24 A"   40 A'   25 A"                 
  1.616   1.688   1.688   1.701   1.732   1.935   1.971   2.029
 41 A'   26 A"   42 A'   27 A"   43 A'   44 A'   45 A'   28 A"                 
  2.029   2.080   2.080   2.173   2.173   2.267   2.270   2.270
 46 A'   29 A"   47 A'   48 A'   30 A"   49 A'   50 A'   31 A"                 
  2.831   3.228   3.290   3.297   3.297   3.309   3.309   3.346
 51 A'   32 A"   33 A"   52 A'   34 A"   53 A'   35 A"   54 A'                 
  3.357   3.357   3.474   3.657   3.657   3.742   3.928   3.928
 55 A'   36 A"   56 A'   57 A'   37 A"   58 A'   38 A"   59 A'                 
 
 Beta MOs, Restricted
 -- Occupied --                  
-24.748 -24.748 -24.748 -10.457  -1.320  -1.230  -1.230  -0.729
  1 A'    2 A'    1 A"    3 A'    4 A'    5 A'    2 A"    6 A'                 
 -0.626  -0.614  -0.614  -0.492  -0.492  -0.456  -0.456  -0.434
  7 A'    8 A'    3 A"    4 A"    9 A'   10 A'    5 A"    6 A"                 
 -0.416
 11 A'                                                                         
 -- Virtual --                   
  0.016   0.059   0.063   0.063   0.133   0.133   0.145   0.153
 12 A'   13 A'   14 A'    7 A"    8 A"   15 A'   16 A'    9 A"                 
  0.153   0.171   0.171   0.200   0.224   0.250   0.293   0.293
 17 A'   10 A"   18 A'   19 A'   20 A'   11 A"   12 A"   21 A'                 
  0.297   0.362   0.382   0.382   0.392   0.392   0.392   0.499
 22 A'   23 A'   24 A'   13 A"   25 A'   14 A"   26 A'   27 A'                 
  0.499   0.581   0.617   0.617   0.632   0.676   0.676   0.685
 15 A"   28 A'   29 A'   16 A"   30 A'   31 A'   17 A"   32 A'                 
  0.726   0.735   0.735   0.770   0.770   0.838   0.859   0.859
 18 A"   33 A'   19 A"   20 A"   34 A'   21 A"   35 A'   22 A"                 
  0.943   0.980   0.980   1.023   1.096   1.480   1.480   1.616
 36 A'   23 A"   37 A'   38 A'   39 A'   24 A"   40 A'   25 A"                 
  1.616   1.688   1.688   1.701   1.732   1.935   1.971   2.029
 41 A'   26 A"   42 A'   27 A"   43 A'   44 A'   45 A'   28 A"                 
  2.029   2.080   2.080   2.173   2.173   2.267   2.270   2.270
 46 A'   29 A"   47 A'   48 A'   30 A"   49 A'   50 A'   31 A"                 
  2.831   3.228   3.290   3.297   3.297   3.309   3.309   3.346
 51 A'   32 A"   33 A"   52 A'   34 A"   53 A'   35 A"   54 A'                 
  3.357   3.357   3.474   3.657   3.657   3.742   3.928   3.928
 55 A'   36 A"   56 A'   57 A'   37 A"   58 A'   38 A"   59 A'                 
 --------------------------------------------------------------
 
          Ground-State Mulliken Net Atomic Charges

     Atom                 Charge (a.u.)
  ----------------------------------------
      1 H                    -0.343650
      2 C                     1.436015
      3 F                    -0.364105
      4 F                    -0.364130
      5 F                    -0.364130
  ----------------------------------------
  Sum of atomic charges =     0.000000

 -----------------------------------------------------------------
                    Cartesian Multipole Moments
 -----------------------------------------------------------------
    Charge (ESU x 10^10)
                 0.0000
    Dipole Moment (Debye)
         X       1.6548      Y       0.0010      Z       0.0000
       Tot       1.6548
    Quadrupole Moments (Debye-Ang)
        XX     -18.9345     XY       0.0028     YY     -22.6600
        XZ       0.0000     YZ       0.0000     ZZ     -22.6602
    Octopole Moments (Debye-Ang^2)
       XXX       0.0580    XXY      -0.0024    XYY      -0.7252
       YYY       1.1737    XXZ      -0.0000    XYZ      -0.0000
       YYZ      -0.0000    XZZ      -0.7236    YZZ      -1.1919
       ZZZ      -0.0000
    Hexadecapole Moments (Debye-Ang^3)
      XXXX     -25.1749   XXXY       0.0213   XXYY     -19.0612
      XYYY       0.4636   YYYY     -87.4353   XXXZ       0.0000
      XXYZ      -0.0000   XYYZ      -0.0000   YYYZ      -0.0000
      XXZZ     -19.0608   XYZZ      -0.4372   YYZZ     -29.1476
      XZZZ      -0.0000   YZZZ      -0.0000   ZZZZ     -87.4421
 -----------------------------------------------------------------
 Total job time:  13.76s(wall), 109.60s(cpu) 
 Tue Nov  5 14:27:58 2024

        *************************************************************
        *                                                           *
        *  Thank you very much for using Q-Chem.  Have a nice day.  *
        *                                                           *
        *************************************************************



Running Job 2 of 2 cf3h_opt_freq.in
qchem cf3h_opt_freq.in_1305778.1 /data/scratch/cf3h_opt_freq20241105142744/ 1
/opt/qchem/6.2.0/exe/qcprog.exe_s cf3h_opt_freq.in_1305778.1 /data/scratch/cf3h_opt_freq20241105142744/
                  Welcome to Q-Chem
     A Quantum Leap Into The Future Of Chemistry


 Q-Chem 6.2, Q-Chem, Inc., Pleasanton, CA (2024)

 E. Epifanovsky,  A. T. B. Gilbert,  Xintian Feng,  Joonho Lee,  Yuezhi Mao,  
 N. Mardirossian,  P. Pokhilko,  A. White,  M. Wormit,  M. P. Coons,  
 A. L. Dempwolff,  Zhengting Gan,  D. Hait,  P. R. Horn,  L. D. Jacobson,  
 I. Kaliman,  J. Kussmann,  A. W. Lange,  Ka Un Lao,  D. S. Levine,  Jie Liu,  
 S. C. McKenzie,  A. F. Morrison,  K. D. Nanda,  F. Plasser,  D. R. Rehn,  
 M. L. Vidal,  Zhi-Qiang You,  Ying Zhu,  Huseyin Aksu,  B. Alam,  
 B. Albrecht,  A. Aldossary,  E. Alguire,  J. H. Andersen,  
 J. E. Arias-Martinez,  V. Athavale,  D. Barton,  K. Begam,  A. Behn,  
 N. Bellonzi,  Y. A. Bernard,  E. J. Berquist,  H. Burton,  A. Carreras,  
 K. Carter-Fenk,  Mathew Chow,  Romit Chakraborty,  Chandrima Chakravarty,  
 Junhan Chen,  A. D. Chien,  K. D. Closser,  V. Cofer-Shabica,  L. Cunha,  
 S. Dasgupta,  Jia Deng,  Joseph Dickinson,  M. de Wergifosse,  
 M. Diedenhofen,  Hainam Do,  Wenjie Dou,  S. Ehlert,  Po-Tung Fang,  
 S. Fatehi,  Qingguo Feng,  Jonathan Fetherolf,  T. Friedhoff,  
 Thomas Froitzheim,  Sarai Folkestad,  B. Ganoe,  J. Gayvert,  Qinghui Ge,  
 G. Gidofalvi,  M. Gimferrer,  M. Goldey,  Montgomery Gray,  J. Gomes,  
 C. Gonzalez-Espinoza,  S. Gulania,  A. Gunina,  J. A. Gyamfi,  
 M. W. D. Hanson-Heine,  P. H. P. Harbach,  A. W. Hauser,  M. F. Herbst,  
 M. Hernandez Vera,  M. Hodecker,  Z. C. Holden,  S. Houck,  Xunkun Huang,  
 Kerwin Hui,  B. C. Huynh,  K. Ikeda,  M. Ivanov,  Nayanthara K. Jayadev,  
 Hyunjun Ji,  Zuxin Jin,  Hanjie Jiang,  Subrata Jana,  B. Kaduk,  
 S. Kaehler,  R. Kang,  K. Khistyaev,  Jaehoon Kim,  Yongbin Kim,  
 P. Klunzinger,  Z. Koczor-Benda,  Joong Hoon Koh,  D. Kosenkov,  
 Saikiran Kotaru,  L. Koulias,  T. Kowalczyk,  C. M. Krauter,  K. Kue,  
 A. Kunitsa,  T. Kus,  A. Landau,  K. V. Lawler,  D. Lefrancois,  S. Lehtola,  
 Rain Li,  Shaozhi Li,  Tao E. Li,  Yi-Pei Li,  Jiashu Liang,  M. Liebenthal,  
 Hung-Hsuan Lin,  You-Sheng Lin,  Fenglai Liu,  Kuan-Yu Liu,  Xiao Liu,  
 M. Loipersberger,  A. Luenser,  C. Malbon,  Aniket Mandal,  Manisha,  
 A. Manjanath,  P. Manohar,  E. Mansoor,  S. F. Manzer,  Shan-Ping Mao,  
 A. V. Marenich,  T. Markovich,  S. Mason,  F. Matz,  S. A. Maurer,  
 Samuel May,  Alexandra McIsaac,  P. F. McLaughlin,  M. F. S. J. Menger,  
 J.-M. Mewes,  S. A. Mewes,  P. Morgante,  Mohammad Mostafanejad,  
 Madhubani Mukherjee,  J. W. Mullinax,  Quyen Nguyen,  Avik Kumar Ojha,  
 K. J. Oosterbaan,  Eno Paenurk,  Xiaoliang Pan,  G. Paran,  V. Parravicini,  
 Alexander C. Paul,  Suranjan K. Paul,  F. Pavosevic,  Zheng Pei,  S. Prager,  
 E. I. Proynov,  E. Ramos,  B. Rana,  A. E. Rask,  A. Rettig,  R. M. Richard,  
 F. Rob,  E. Rossomme,  T. Scheele,  M. Scheurer,  M. Schneider,  
 P. E. Schneider,  Tim K. Schramm,  N. Sergueev,  S. M. Sharada,  
 Hengyuan Shen,  W. Skomorowski,  D. W. Small,  C. J. Stein,  
 Alistair J. Sterling,  Yingli Su,  Yu-Chuan Su,  E. J. Sundstrom,  
 J. Talbot,  Zhen Tao,  J. Thirman,  Hung-Yi Tsai,  T. Tsuchimochi,  
 N. M. Tubman,  C. Utku,  S. P. Veccham,  O. Vydrov,  Rahel Weiss,  
 J. Wenzel,  Jonathan Wong,  J. Witte,  H. Wu,  Yanze Wu,  A. Yamada,  
 Chou-Hsun Yang,  Kun Yao,  S. Yeganeh,  S. R. Yost,  Qi Yu,  A. Zech,  
 F. Zeller,  Chongxiao Zhao,  Igor Ying Zhang,  Xing Zhang,  Yu Zhang,  
 D. Zuev,  A. Aspuru-Guzik,  A. T. Bell,  N. A. Besley,  K. B. Bravaya,  
 B. R. Brooks,  D. Casanova,  Jeng-Da Chai,  Hsing-Ta Chen,  S. Coriani,  
 C. J. Cramer,  A. E. DePrince, III,  R. A. DiStasio Jr.,  A. Dreuw,  
 B. D. Dunietz,  T. R. Furlani,  W. A. Goddard III,  S. Grimme,  
 S. Hammes-Schiffer,  T. Head-Gordon,  W. J. Hehre,  Chao-Ping Hsu,  
 T.-C. Jagau,  Yousung Jung,  A. Klamt,  Jing Kong,  D. S. Lambrecht,  
 Xiangyuan Li,  WanZhen Liang,  N. J. Mayhall,  C. W. McCurdy,  J. B. Neaton,  
 T. Neudecker,  C. Ochsenfeld,  J. A. Parkhill,  R. Peverati,  
 V. A. Rassolov,  Haisheng Ren,  Yihan Shao,  L. V. Slipchenko,  
 R. P. Steele,  J. E. Subotnik,  A. J. W. Thom,  A. Tkatchenko,  
 D. G. Truhlar,  T. Van Voorhis,  Fan Wang,  T. A. Wesolowski,  K. B. Whaley,  
 H. L. Woodcock III,  P. M. Zimmerman,  S. Faraji,  P. M. W. Gill,  
 M. Head-Gordon,  J. M. Herbert,  A. I. Krylov

 Contributors to earlier versions of Q-Chem not listed above: 
 R. D. Adamson,  B. Austin,  R. Baer,  J. Baker,  G. J. O. Beran,  
 K. Brandhorst,  S. T. Brown,  E. F. C. Byrd,  Arup K. Chakraborty,  
 G. K. L. Chan,  Chun-Min Chang,  Yunqing Chen,  C.-L. Cheng,  
 Siu Hung Chien,  D. M. Chipman,  D. L. Crittenden,  H. Dachsel,  
 R. J. Doerksen,  A. D. Dutoi,  R. G. Edgar,  J. Fosso-Tande,  
 L. Fusti-Molnar,  D. Ghosh,  A. Ghysels,  A. Golubeva-Zadorozhnaya,  
 J. Gonthier,  M. S. Gordon,  S. R. Gwaltney,  G. Hawkins,  J. E. Herr,  
 A. Heyden,  S. Hirata,  E. G. Hohenstein,  G. Kedziora,  F. J. Keil,  
 C. Kelley,  Jihan Kim,  R. A. King,  R. Z. Khaliullin,  P. P. Korambath,  
 W. Kurlancheek,  A. Laurent,  A. M. Lee,  M. S. Lee,  S. V. Levchenko,  
 Ching Yeh Lin,  D. Liotard,  E. Livshits,  R. C. Lochan,  I. Lotan,  
 L. A. Martinez-Martinez,  P. E. Maslen,  N. Nair,  D. P. O'Neill,  
 D. Neuhauser,  E. Neuscamman,  C. M. Oana,  R. Olivares-Amaya,  R. Olson,  
 T. M. Perrine,  B. Peters,  P. A. Pieniazek,  A. Prociuk,  Y. M. Rhee,  
 J. Ritchie,  M. A. Rohrdanz,  E. Rosta,  N. J. Russ,  H. F. Schaefer III,  
 M. W. Schmidt,  N. E. Schultz,  S. Sharma,  N. Shenvi,  C. D. Sherrill,  
 A. C. Simmonett,  A. Sodt,  T. Stein,  D. Stuck,  K. S. Thanthiriwatte,  
 V. Vanovschi,  L. Vogt,  Tao Wang,  A. Warshel,  M. A. Watson,  
 C. F. Williams,  Q. Wu,  X. Xu,  Jun Yang,  W. Zhang,  Yan Zhao

   Please cite Q-Chem as follows:
  "Software for the frontiers of quantum chemistry:
   An overview of developments in the Q-Chem 5 package"
   J. Chem. Phys. 155, 084801 (2021)
   https://doi.org/10.1063/5.0055522 (open access)

 Q-Chem 6.2.0 for Intel X86 EM64T Linux

 Parts of Q-Chem use Armadillo 9.900.5 (Nocturnal Misbehaviour).
 http://arma.sourceforge.net/

 Q-Chem begins on Tue Nov  5 14:27:59 2024  

 Host: 
0

     Scratch files written to /data/scratch/cf3h_opt_freq20241105142744//
 May224 |scratch|qcdevops|jenkins|workspace|build_RNUM -1
 Processing $rem in /opt/qchem/6.2.0/config/preferences:
 Processing $rem in /home/ymao/.qchemrc:

 Checking the input file for inconsistencies... 	...done.

--------------------------------------------------------------
User input:
--------------------------------------------------------------

$molecule
read
$end

$rem
JOBTYPE  FREQ
GEN_SCFMAN  TRUE
METHOD  B3LYP
DFT_D  D3_BJ
BASIS  DEF2-SVPD
UNRESTRICTED  FALSE
MAX_SCF_CYCLES  2000
THRESH  14
SCF_CONVERGENCE  9
MEM_TOTAL  8000
MEM_STATIC  2000
SYMMETRY  FALSE
SYM_IGNORE  FALSE
SCF_ALGORITHM  DIIS
BASIS_LIN_DEP_THRESH  6
IDERIV  1
XC_GRID  000075000302
NL_GRID  1
FD_MAT_VEC_PROD  FALSE
GEOM_OPT_TOL_GRADIENT  50
GEOM_OPT_TOL_DISPLACEMENT  50
GEOM_OPT_TOL_ENERGY  10
GEOM_OPT_DRIVER  OPTIMIZE
GEOM_OPT_MAX_CYCLES  200
$end
--------------------------------------------------------------
 Adding empirical dispersion correction 
 ----------------------------------------------------------------
 Doing -D3(BJ) with
 s6  =   1.00000
 s8  =   1.98890
 a1  =   0.39810
 a2  =   4.42110
 ----------------------------------------------------------------
 -D3 energy without 3body term =     -0.0026772184 hartrees
 ----------------------------------------------------------------
             Standard Nuclear Orientation (Angstroms)
    I     Atom           X                Y                Z
 ----------------------------------------------------------------
    1      H       1.4369034786    -0.0000116542    -0.0000000000
    2      C       0.3384126898    -0.0000028979    -0.0000000000
    3      F      -0.1284230213    -1.2564697546     0.0000000000
    4      F      -0.1284206903     0.6282364907     1.0881688845
    5      F      -0.1284206903     0.6282364907    -1.0881688845
 ----------------------------------------------------------------
 Molecular Point Group                 Cs    NOp =  2
 Largest Abelian Subgroup              Cs    NOp =  2
 Nuclear Repulsion Energy =         133.04781093 hartrees
 There are       17 alpha and       17 beta electrons
 Requested basis set is def2-SVPD
 There are 39 shells and 97 basis functions

 Total QAlloc Memory Limit   8000 MB
 Mega-Array Size      1956 MB
 MEM_STATIC part      2000 MB


                       Distance Matrix (Angstroms)
             H (  1)   C (  2)   F (  3)   F (  4)
   C (  2)  1.098491
   F (  3)  2.007220  1.340390
   F (  4)  2.007249  1.340421  2.176288
   F (  5)  2.007249  1.340421  2.176288  2.176338
 
 A cutoff of  1.0D-14 yielded    777 shell pairs
 There are      4869 function pairs (      5721 Cartesian)
 Smallest overlap matrix eigenvalue = 7.53E-04
 Guess from superposition of atomic densities
 Warning:  Energy on first SCF cycle will be non-variational
 SAD guess density has 34.000000 electrons

 -----------------------------------------------------------------------
  General SCF calculation program by
  Eric Jon Sundstrom, Paul Horn, Yuezhi Mao, Dmitri Zuev, Alec White,
  David Stuck, Shaama M.S., Shane Yost, Joonho Lee, David Small,
  Daniel Levine, Susi Lehtola, Hugh Burton, Evgeny Epifanovsky,
  Bang C. Huynh
 -----------------------------------------------------------------------
 Exchange:     0.2000 Hartree-Fock + 0.0800 Slater + 0.7200 B88
 Correlation:  0.1900 VWN1RPA + 0.8100 LYP
 Using Euler-Maclaurin-Lebedev (75,302) quadrature formula
 Dispersion:   Grimme D3
 using 8 threads for integral computing
 -------------------------------------------------------
 OpenMP Integral computing Module                
 Release: version 1.0, May 2013, Q-Chem Inc. Pittsburgh 
 -------------------------------------------------------
 A restricted SCF calculation will be
 performed using DIIS
 SCF converges when DIIS error is below 1.0e-09
 ---------------------------------------
  Cycle       Energy         DIIS error
 ---------------------------------------
    1    -338.5302232667      5.78e-02  
    2    -337.9416348780      9.26e-03  
    3    -337.8647977027      1.39e-02  
    4    -338.0076643926      4.44e-04  
    5    -338.0077909960      1.44e-04  
    6    -338.0078078758      3.01e-05  
    7    -338.0078088680      1.77e-06  
    8    -338.0078088709      3.94e-07  
    9    -338.0078088710      1.45e-07  
   10    -338.0078088710      4.49e-08  
   11    -338.0078088710      2.10e-09  
   12    -338.0078088710      1.35e-10  Convergence criterion met
 ---------------------------------------
 SCF time:   CPU 22.61s  wall 3.00s 
 SCF   energy =  -338.00780887
 Total energy =  -338.00780887
 
 --------------------------------------------------------------
             Orbital Energies (a.u.) and Symmetries
 --------------------------------------------------------------
 
 Alpha MOs, Restricted
 -- Occupied --                  
-24.748 -24.748 -24.748 -10.457  -1.320  -1.230  -1.230  -0.729
  1 A'    2 A'    1 A"    3 A'    4 A'    5 A'    2 A"    6 A'                 
 -0.626  -0.614  -0.614  -0.492  -0.492  -0.456  -0.456  -0.434
  7 A'    8 A'    3 A"    4 A"    9 A'   10 A'    5 A"    6 A"                 
 -0.416
 11 A'                                                                         
 -- Virtual --                   
  0.016   0.059   0.063   0.063   0.133   0.133   0.145   0.153
 12 A'   13 A'   14 A'    7 A"    8 A"   15 A'   16 A'    9 A"                 
  0.153   0.171   0.171   0.200   0.224   0.250   0.293   0.293
 17 A'   10 A"   18 A'   19 A'   20 A'   11 A"   12 A"   21 A'                 
  0.297   0.362   0.382   0.382   0.392   0.392   0.392   0.499
 22 A'   23 A'   24 A'   13 A"   25 A'   14 A"   26 A'   27 A'                 
  0.499   0.581   0.617   0.617   0.632   0.676   0.676   0.685
 15 A"   28 A'   29 A'   16 A"   30 A'   31 A'   17 A"   32 A'                 
  0.726   0.735   0.735   0.770   0.770   0.838   0.859   0.859
 18 A"   33 A'   19 A"   20 A"   34 A'   21 A"   35 A'   22 A"                 
  0.943   0.980   0.980   1.023   1.096   1.480   1.480   1.616
 36 A'   23 A"   37 A'   38 A'   39 A'   24 A"   40 A'   25 A"                 
  1.616   1.688   1.688   1.701   1.732   1.935   1.971   2.029
 41 A'   26 A"   42 A'   27 A"   43 A'   44 A'   45 A'   28 A"                 
  2.029   2.080   2.080   2.173   2.173   2.267   2.270   2.270
 46 A'   29 A"   47 A'   48 A'   30 A"   49 A'   50 A'   31 A"                 
  2.831   3.228   3.290   3.297   3.297   3.309   3.309   3.346
 51 A'   32 A"   33 A"   52 A'   34 A"   53 A'   35 A"   54 A'                 
  3.357   3.357   3.474   3.657   3.657   3.742   3.928   3.928
 55 A'   36 A"   56 A'   57 A'   37 A"   58 A'   38 A"   59 A'                 
 
 Beta MOs, Restricted
 -- Occupied --                  
-24.748 -24.748 -24.748 -10.457  -1.320  -1.230  -1.230  -0.729
  1 A'    2 A'    1 A"    3 A'    4 A'    5 A'    2 A"    6 A'                 
 -0.626  -0.614  -0.614  -0.492  -0.492  -0.456  -0.456  -0.434
  7 A'    8 A'    3 A"    4 A"    9 A'   10 A'    5 A"    6 A"                 
 -0.416
 11 A'                                                                         
 -- Virtual --                   
  0.016   0.059   0.063   0.063   0.133   0.133   0.145   0.153
 12 A'   13 A'   14 A'    7 A"    8 A"   15 A'   16 A'    9 A"                 
  0.153   0.171   0.171   0.200   0.224   0.250   0.293   0.293
 17 A'   10 A"   18 A'   19 A'   20 A'   11 A"   12 A"   21 A'                 
  0.297   0.362   0.382   0.382   0.392   0.392   0.392   0.499
 22 A'   23 A'   24 A'   13 A"   25 A'   14 A"   26 A'   27 A'                 
  0.499   0.581   0.617   0.617   0.632   0.676   0.676   0.685
 15 A"   28 A'   29 A'   16 A"   30 A'   31 A'   17 A"   32 A'                 
  0.726   0.735   0.735   0.770   0.770   0.838   0.859   0.859
 18 A"   33 A'   19 A"   20 A"   34 A'   21 A"   35 A'   22 A"                 
  0.943   0.980   0.980   1.023   1.096   1.480   1.480   1.616
 36 A'   23 A"   37 A'   38 A'   39 A'   24 A"   40 A'   25 A"                 
  1.616   1.688   1.688   1.701   1.732   1.935   1.971   2.029
 41 A'   26 A"   42 A'   27 A"   43 A'   44 A'   45 A'   28 A"                 
  2.029   2.080   2.080   2.173   2.173   2.267   2.270   2.270
 46 A'   29 A"   47 A'   48 A'   30 A"   49 A'   50 A'   31 A"                 
  2.831   3.228   3.290   3.297   3.297   3.309   3.309   3.346
 51 A'   32 A"   33 A"   52 A'   34 A"   53 A'   35 A"   54 A'                 
  3.357   3.357   3.474   3.657   3.657   3.742   3.928   3.928
 55 A'   36 A"   56 A'   57 A'   37 A"   58 A'   38 A"   59 A'                 
 --------------------------------------------------------------
 
          Ground-State Mulliken Net Atomic Charges

     Atom                 Charge (a.u.)
  ----------------------------------------
      1 H                    -0.343650
      2 C                     1.436015
      3 F                    -0.364105
      4 F                    -0.364130
      5 F                    -0.364130
  ----------------------------------------
  Sum of atomic charges =     0.000000

 -----------------------------------------------------------------
                    Cartesian Multipole Moments
 -----------------------------------------------------------------
    Charge (ESU x 10^10)
                -0.0000
    Dipole Moment (Debye)
         X       1.6548      Y      -0.0001      Z       0.0000
       Tot       1.6548
    Quadrupole Moments (Debye-Ang)
        XX     -18.9419     XY      -0.0000     YY     -22.6600
        XZ      -0.0000     YZ       0.0000     ZZ     -22.6602
    Octopole Moments (Debye-Ang^2)
       XXX       0.1860    XXY      -0.0001    XYY      -0.6733
       YYY       1.1870    XXZ      -0.0000    XYZ      -0.0000
       YYZ      -0.0000    XZZ      -0.6733    YZZ      -1.1875
       ZZZ       0.0000
    Hexadecapole Moments (Debye-Ang^3)
      XXXX     -25.1760   XXXY      -0.0000   XXYY     -19.0575
      XYYY       0.4411   YYYY     -87.4373   XXXZ       0.0000
      XXYZ      -0.0000   XYYZ      -0.0000   YYYZ      -0.0000
      XXZZ     -19.0583   XYZZ      -0.4411   YYZZ     -29.1466
      XZZZ       0.0000   YZZZ      -0.0000   ZZZZ     -87.4421
 -----------------------------------------------------------------
 Calculating analytic gradient of the SCF energy
 Gradient of SCF Energy
            1           2           3           4           5
    1  -0.0000076   0.0000271  -0.0000057  -0.0000069  -0.0000069
    2  -0.0000021  -0.0000481   0.0000156   0.0000173   0.0000173
    3   0.0000000  -0.0000000  -0.0000000   0.0000195  -0.0000195
 Max gradient component =       4.812E-05
 RMS gradient           =       1.797E-05
 Gradient time:  CPU 7.30 s  wall 0.92 s


 ##########################################
 # Starting finite difference calculation #
 ##########################################

 Finite diff step size:  1.88973e-03 a.u.
 Adding empirical dispersion correction 
 ----------------------------------------------------------------
 Doing -D3(BJ) with
 s6  =   1.00000
 s8  =   1.98890
 a1  =   0.39810
 a2  =   4.42110
 ----------------------------------------------------------------
 -D3 energy without 3body term =     -0.0026771715 hartrees
 ----------------------------------------------------------------
             Standard Nuclear Orientation (Angstroms)
    I     Atom           X                Y                Z
 ----------------------------------------------------------------
    1      H       1.4379034786    -0.0000116542    -0.0000000000
    2      C       0.3384126898    -0.0000028979    -0.0000000000
    3      F      -0.1284230213    -1.2564697546     0.0000000000
    4      F      -0.1284206903     0.6282364907     1.0881688845
    5      F      -0.1284206903     0.6282364907    -1.0881688845
 ----------------------------------------------------------------
 Nuclear Repulsion Energy =         133.04241737 hartrees
 There are       17 alpha and       17 beta electrons

                       Distance Matrix (Angstroms)
             H (  1)   C (  2)   F (  3)   F (  4)
   C (  2)  1.099491
   F (  3)  2.008000  1.340390
   F (  4)  2.008029  1.340421  2.176288
   F (  5)  2.008029  1.340421  2.176288  2.176338
 
 Requested basis set is def2-SVPD
 There are 39 shells and 97 basis functions
 A cutoff of  1.0D-14 yielded    777 shell pairs
 There are      4869 function pairs (      5721 Cartesian)
 Smallest overlap matrix eigenvalue = 7.56E-04
 Guess MOs from SCF MO coefficient file

 -----------------------------------------------------------------------
  General SCF calculation program by
  Eric Jon Sundstrom, Paul Horn, Yuezhi Mao, Dmitri Zuev, Alec White,
  David Stuck, Shaama M.S., Shane Yost, Joonho Lee, David Small,
  Daniel Levine, Susi Lehtola, Hugh Burton, Evgeny Epifanovsky,
  Bang C. Huynh
 -----------------------------------------------------------------------
 Exchange:     0.2000 Hartree-Fock + 0.0800 Slater + 0.7200 B88
 Correlation:  0.1900 VWN1RPA + 0.8100 LYP
 Using Euler-Maclaurin-Lebedev (75,302) quadrature formula
 Dispersion:   Grimme D3
 A restricted SCF calculation will be
 performed using DIIS
 SCF converges when DIIS error is below 1.0e-09
 ---------------------------------------
  Cycle       Energy         DIIS error
 ---------------------------------------
    1    -338.0078080860      1.32e-05  
    2    -338.0078082625      1.96e-06  
    3    -338.0078082624      2.40e-06  
    4    -338.0078082667      2.41e-07  
    5    -338.0078082668      3.21e-08  
    6    -338.0078082668      1.17e-08  
    7    -338.0078082668      2.31e-09  
    8    -338.0078082668      9.89e-11  Convergence criterion met
 ---------------------------------------
 SCF time:   CPU 15.30s  wall 2.00s 
 SCF   energy =  -338.00780827
 Total energy =  -338.00780827
 
 --------------------------------------------------------------
 
                    Orbital Energies (a.u.)
 --------------------------------------------------------------
 
 Alpha MOs
 -- Occupied --
-24.7480 -24.7480 -24.7480 -10.4569  -1.3201  -1.2304  -1.2304  -0.7292
 -0.6255  -0.6138  -0.6138  -0.4918  -0.4918  -0.4565  -0.4565  -0.4343
 -0.4158
 -- Virtual --
  0.0159   0.0593   0.0629   0.0629   0.1327   0.1327   0.1452   0.1533
  0.1533   0.1713   0.1713   0.2000   0.2242   0.2497   0.2929   0.2929
  0.2967   0.3622   0.3819   0.3819   0.3917   0.3918   0.3918   0.4995
  0.4995   0.5805   0.6173   0.6173   0.6315   0.6763   0.6763   0.6852
  0.7258   0.7348   0.7348   0.7697   0.7697   0.8377   0.8589   0.8589
  0.9425   0.9796   0.9796   1.0232   1.0956   1.4801   1.4801   1.6161
  1.6161   1.6876   1.6876   1.7009   1.7316   1.9339   1.9714   2.0287
  2.0287   2.0798   2.0799   2.1731   2.1731   2.2668   2.2699   2.2699
  2.8290   3.2280   3.2898   3.2972   3.2972   3.3086   3.3087   3.3461
  3.3567   3.3567   3.4735   3.6574   3.6574   3.7425   3.9281   3.9281
 --------------------------------------------------------------
 
          Ground-State Mulliken Net Atomic Charges

     Atom                 Charge (a.u.)
  ----------------------------------------
      1 H                    -0.340754
      2 C                     1.432855
      3 F                    -0.364017
      4 F                    -0.364042
      5 F                    -0.364042
  ----------------------------------------
  Sum of atomic charges =     0.000000

 -----------------------------------------------------------------
                    Cartesian Multipole Moments
 -----------------------------------------------------------------
[...]
    Octopole Moments (Debye-Ang^2)
       XXX       0.1836    XXY       0.0011    XYY      -0.6734
       YYY       1.1916    XXZ       0.0069    XYZ      -0.0000
       YYZ       0.0079    XZZ      -0.6732    YZZ      -1.1856
       ZZZ       0.0255
    Hexadecapole Moments (Debye-Ang^3)
      XXXX     -25.1799   XXXY       0.0000   XXYY     -19.0574
      XYYY       0.4408   YYYY     -87.4378   XXXZ      -0.0023
      XXYZ       0.0044   XYYZ      -0.0007   YYYZ       0.0137
      XXZZ     -19.0463   XYZZ      -0.4409   YYZZ     -29.1343
      XZZZ      -0.0014   YZZZ       0.0143   ZZZZ     -87.3713
 -----------------------------------------------------------------
 Calculating analytic gradient of the SCF energy
 Gradient of SCF Energy
            1           2           3           4           5
    1  -0.0000245  -0.0001282   0.0000017   0.0001672  -0.0000161
    2   0.0000222   0.0000726   0.0000910  -0.0002108   0.0000250
    3   0.0000244   0.0003452   0.0000128  -0.0005197   0.0001373
 Max gradient component =       5.197E-04
 RMS gradient           =       1.850E-04
 Gradient time:  CPU 7.30 s  wall 0.91 s
Dipole drv :
gprntSymmMtrx error report: 
 Final Hessian.
            1           2           3           4           5           6
    1   0.3471613   0.0000094   0.0000000  -0.3237809  -0.0000014   0.0000000
    2   0.0000094   0.0639791   0.0000000  -0.0000008  -0.0474788   0.0000000
    3   0.0000000   0.0000000   0.0639860   0.0000000   0.0000000  -0.0474824
    4  -0.3237809  -0.0000008   0.0000000   0.7377658  -0.0002297   0.0000000
    5  -0.0000014  -0.0474788   0.0000000  -0.0002297   0.4839533   0.0000000
    6   0.0000000   0.0000000  -0.0474824   0.0000000   0.0000000   0.4838087
    7  -0.0077846  -0.0413758   0.0000000  -0.1382415  -0.0805218  -0.0000000
    8  -0.0103150  -0.0203104   0.0000000  -0.0946687  -0.2188205   0.0000000
    9   0.0000000   0.0000000   0.0093147   0.0000000   0.0000000  -0.0720464
   10  -0.0077979   0.0206836   0.0358274  -0.1378719   0.0403765   0.0696621
   11   0.0051535   0.0019051  -0.0128281   0.0474496  -0.1088268  -0.0635093
   12   0.0089291  -0.0128281  -0.0129091   0.0819107  -0.0635148  -0.1821398
   13  -0.0077979   0.0206836  -0.0358274  -0.1378719   0.0403765  -0.0696621
   14   0.0051535   0.0019051   0.0128281   0.0474496  -0.1088268   0.0635093
   15  -0.0089291   0.0128281  -0.0129091  -0.0819107   0.0635148  -0.1821398
            7           8           9          10          11          12
    1  -0.0077846  -0.0103150   0.0000000  -0.0077979   0.0051535   0.0089291
    2  -0.0413758  -0.0203104   0.0000000   0.0206836   0.0019051  -0.0128281
    3   0.0000000   0.0000000   0.0093147   0.0358274  -0.0128281  -0.0129091
    4  -0.1382415  -0.0946687   0.0000000  -0.1378719   0.0474496   0.0819107
    5  -0.0805218  -0.2188205   0.0000000   0.0403765  -0.1088268  -0.0635148
    6  -0.0000000   0.0000000  -0.0720464   0.0696621  -0.0635093  -0.1821398
    7   0.1031094   0.1061209   0.0000000   0.0214583   0.0078883  -0.0039025
    8   0.1061209   0.3541402   0.0000000  -0.0005686  -0.0575048  -0.0398530
    9   0.0000000   0.0000000   0.0762607  -0.0087883  -0.0480223  -0.0067645
   10   0.0214583  -0.0005686  -0.0087883   0.1027491  -0.0531699  -0.0918192
   11   0.0078883  -0.0575048  -0.0480223  -0.0531699   0.1458292   0.1202777
   12  -0.0039025  -0.0398530  -0.0067645  -0.0918192   0.1202777   0.2846701
   13   0.0214583  -0.0005686   0.0087883   0.0214624  -0.0073215   0.0048818
   14   0.0078883  -0.0575048   0.0480223  -0.0073215   0.0185973  -0.0040819
   15   0.0039025   0.0398530  -0.0067645  -0.0048818   0.0040819  -0.0828568
           13          14          15
    1  -0.0077979   0.0051535  -0.0089291
    2   0.0206836   0.0019051   0.0128281
    3  -0.0358274   0.0128281  -0.0129091
    4  -0.1378719   0.0474496  -0.0819107
    5   0.0403765  -0.1088268   0.0635148
    6  -0.0696621   0.0635093  -0.1821398
    7   0.0214583   0.0078883   0.0039025
    8  -0.0005686  -0.0575048   0.0398530
    9   0.0087883   0.0480223  -0.0067645
   10   0.0214624  -0.0073215  -0.0048818
   11  -0.0073215   0.0185973   0.0040819
   12   0.0048818  -0.0040819  -0.0828568
   13   0.1027491  -0.0531699   0.0918192
   14  -0.0531699   0.1458292  -0.1202777
   15   0.0918192  -0.1202777   0.2846701
 Adding empirical dispersion correction 
 ----------------------------------------------------------------
 Doing -D3(BJ) with
 s6  =   1.00000
 s8  =   1.98890
 a1  =   0.39810
 a2  =   4.42110
 ----------------------------------------------------------------
 -D3 energy without 3body term =     -0.0026772184 hartrees
 ----------------------------------------------------------------
             Standard Nuclear Orientation (Angstroms)
    I     Atom           X                Y                Z
 ----------------------------------------------------------------
    1      H       1.4369034786    -0.0000116542    -0.0000000000
    2      C       0.3384126898    -0.0000028979    -0.0000000000
    3      F      -0.1284230213    -1.2564697546     0.0000000000
    4      F      -0.1284206903     0.6282364907     1.0881688845
    5      F      -0.1284206903     0.6282364907    -1.0881688845
 ----------------------------------------------------------------
 Nuclear Repulsion Energy =         133.04781093 hartrees
 There are       17 alpha and       17 beta electrons
 old dipole drv.
            1           2           3           4           5           6
    1  -0.0638045  -0.0000002   0.0000000   1.1463708   0.0000115   0.0000000
    2  -0.0000025   0.0152630   0.0000000   0.0000255   1.8328327   0.0000000
    3   0.0000000  -0.0000000   0.0152565   0.0000001  -0.0000000   1.8328827
            7           8           9          10          11          12
    1  -0.3608521  -0.1287079   0.0000000  -0.3608557   0.0643465   0.1114556
    2  -0.2838676  -0.9306903   0.0000000   0.1419219  -0.4587031  -0.2724971
    3   0.0000001   0.0000000  -0.3014059   0.2458129  -0.2724874  -0.7733677
           13          14          15
    1  -0.3608557   0.0643465  -0.1114556
    2   0.1419219  -0.4587031   0.2724971
    3  -0.2458129   0.2724874  -0.7733677
 New transposed dipole drv.
            1           2           3
    1  -0.0638045  -0.0000025   0.0000000
    2  -0.0000002   0.0152630  -0.0000000
    3   0.0000000   0.0000000   0.0152565
    4   1.1463708   0.0000255   0.0000001
    5   0.0000115   1.8328327  -0.0000000
    6   0.0000000   0.0000000   1.8328827
    7  -0.3608521  -0.2838676   0.0000001
    8  -0.1287079  -0.9306903   0.0000000
    9   0.0000000   0.0000000  -0.3014059
   10  -0.3608557   0.1419219   0.2458129
   11   0.0643465  -0.4587031  -0.2724874
   12   0.1114556  -0.2724971  -0.7733677
   13  -0.3608557   0.1419219  -0.2458129
   14   0.0643465  -0.4587031   0.2724874
   15  -0.1114556   0.2724971  -0.7733677
FINAL TENSOR RESULT:
Order 2, Length 15
    Atom      X          Y          Z
     1 Order 1, Length 15
    Atom      X          Y          Z
     1    3.471612637354078e-01   9.442287704324923e-06   0.000000000000000e+00
     2   -3.237808812169480e-01  -1.430963995687373e-06   0.000000000000000e+00
     3   -7.784557403924086e-03  -1.031498472708901e-02   0.000000000000000e+00
     4   -7.797867006033474e-03   5.153466057225349e-03   8.929148769846382e-03
     5   -7.797867013079859e-03   5.153466044278214e-03  -8.929148778394576e-03

Order 1, Length 15
    Atom      X          Y          Z
     1    9.442287704324923e-06   6.397906711982078e-02   0.000000000000000e+00
     2   -7.618867458978417e-07  -4.747876233110584e-02   0.000000000000000e+00
     3   -4.137583884337152e-02  -2.031039163874587e-02   0.000000000000000e+00
     4    2.068357766555677e-02   1.905077005614990e-03  -1.282810711172390e-02
     5    2.068357766354457e-02   1.905077009496193e-03   1.282810710899200e-02

Order 1, Length 15
    Atom      X          Y          Z
     1    0.000000000000000e+00   0.000000000000000e+00   6.398595141010957e-02
     2    0.000000000000000e+00   0.000000000000000e+00  -4.748243025807471e-02
     3    1.248752686075970e-08   0.000000000000000e+00   9.314703430697693e-03
     4    3.582735071743796e-02  -1.282810118828668e-02  -1.290908661291088e-02
     5   -3.582735071743796e-02   1.282810118828668e-02  -1.290908661291088e-02


     2 Order 1, Length 15
    Atom      X          Y          Z
     1   -3.237808812169480e-01  -7.618867458978417e-07   0.000000000000000e+00
     2    7.377658095770072e-01  -2.296736917767031e-04   0.000000000000000e+00
     3   -1.382414724325083e-01  -9.466871958135326e-02   0.000000000000000e+00
     4   -1.378719073654335e-01   4.744959321128436e-02   8.191069918195176e-02
     5   -1.378718957369066e-01   4.744958276412481e-02  -8.191067855133785e-02

Order 1, Length 15
    Atom      X          Y          Z
     1   -1.430963995687373e-06  -4.747876233110584e-02   0.000000000000000e+00
     2   -2.296736917767031e-04   4.839533002476408e-01   0.000000000000000e+00
     3   -8.052180536088638e-02  -2.188204955322402e-01   0.000000000000000e+00
     4    4.037650373070681e-02  -1.088268114649077e-01  -6.351480848303598e-02
     5    4.037650372696330e-02  -1.088268114492837e-01   6.351480847295293e-02

Order 1, Length 15
    Atom      X          Y          Z
     1    0.000000000000000e+00   0.000000000000000e+00  -4.748243025807471e-02
     2    0.000000000000000e+00   0.000000000000000e+00   4.838086753236323e-01
     3   -3.252147043777167e-08   0.000000000000000e+00  -7.204642456253679e-02
     4    6.966205893875055e-02  -6.350927469454841e-02  -1.821397973416711e-01
     5   -6.966205893875055e-02   6.350927469454841e-02  -1.821397973416711e-01


     3 Order 1, Length 15
    Atom      X          Y          Z
     1   -7.784557403924086e-03  -4.137583884337152e-02   1.248752686075970e-08
     2   -1.382414724325083e-01  -8.052180536088638e-02  -3.252147043777167e-08
     3    1.031094427558386e-01   1.061209133441190e-01   0.000000000000000e+00
     4    2.145832951313267e-02   7.888325266310434e-03  -3.902472981103418e-03
     5    2.145833135919551e-02   7.888328481062842e-03   3.902484524623886e-03

Order 1, Length 15
    Atom      X          Y          Z
     1   -1.031498472708901e-02  -2.031039163874587e-02   0.000000000000000e+00
     2   -9.466871958135326e-02  -2.188204955322402e-01   0.000000000000000e+00
     3    1.061209133441190e-01   3.541402432580371e-01   0.000000000000000e+00
     4   -5.686016352007795e-04  -5.750484069672226e-02  -3.985300902286712e-02
     5   -5.686016298232754e-04  -5.750484068087800e-02   3.985300901590152e-02

Order 1, Length 15
    Atom      X          Y          Z
     1    0.000000000000000e+00   0.000000000000000e+00   9.314703430697693e-03
     2    0.000000000000000e+00   0.000000000000000e+00  -7.204642456253679e-02
     3    0.000000000000000e+00   0.000000000000000e+00   7.626066013011164e-02
     4   -8.788311255741761e-03  -4.802228239047329e-02  -6.764485961994736e-03
     5    8.788311255741761e-03   4.802228239047329e-02  -6.764485961994736e-03


     4 Order 1, Length 15
    Atom      X          Y          Z
     1   -7.797867006033474e-03   2.068357766555677e-02   3.582735071743796e-02
     2   -1.378719073654335e-01   4.037650373070681e-02   6.966205893875055e-02
     3    2.145832951313267e-02  -5.686016352007795e-04  -8.788311255741761e-03
     4    1.027491342537940e-01  -5.316991111451731e-02  -9.181922731066455e-02
     5    2.146239511390295e-02  -7.321519828393341e-03  -4.881802253309810e-03

Order 1, Length 15
    Atom      X          Y          Z
     1    5.153466057225349e-03   1.905077005614990e-03  -1.282810118828668e-02
     2    4.744959321128436e-02  -1.088268114649077e-01  -6.350927469454841e-02
     3    7.888325266310434e-03  -5.750484069672226e-02  -4.802228239047329e-02
     4   -5.316991111451731e-02   1.458292036103168e-01   1.202777275797847e-01
     5   -7.321519828393341e-03   1.859729101961587e-02   4.081880517068013e-03

Order 1, Length 15
    Atom      X          Y          Z
     1    8.929148769846382e-03  -1.282810711172390e-02  -1.290908661291088e-02
     2    8.191069918195176e-02  -6.351480848303598e-02  -1.821397973416711e-01
     3   -3.902472981103418e-03  -3.985300902286712e-02  -6.764485961994736e-03
     4   -9.181922731066455e-02   1.202777275797847e-01   2.846700840961559e-01
     5    4.881802253309810e-03  -4.081880517068013e-03  -8.285683637058329e-02


     5 Order 1, Length 15
    Atom      X          Y          Z
     1   -7.797867013079859e-03   2.068357766354457e-02  -3.582735071743796e-02
     2   -1.378718957369066e-01   4.037650372696330e-02  -6.966205893875055e-02
     3    2.145833135919551e-02  -5.686016298232754e-04   8.788311255741761e-03
     4    2.146239511390295e-02  -7.321519828393341e-03   4.881802253309810e-03
     5    1.027491342537940e-01  -5.316991111451731e-02   9.181922731066455e-02

Order 1, Length 15
    Atom      X          Y          Z
     1    5.153466044278214e-03   1.905077009496193e-03   1.282810118828668e-02
     2    4.744958276412481e-02  -1.088268114492837e-01   6.350927469454841e-02
     3    7.888328481062842e-03  -5.750484068087800e-02   4.802228239047329e-02
     4   -7.321519828393341e-03   1.859729101961587e-02  -4.081880517068013e-03
     5   -5.316991111451731e-02   1.458292036103168e-01  -1.202777275797847e-01

Order 1, Length 15
    Atom      X          Y          Z
     1   -8.929148778394576e-03   1.282810710899200e-02  -1.290908661291088e-02
     2   -8.191067855133785e-02   6.351480847295293e-02  -1.821397973416711e-01
     3    3.902484524623886e-03   3.985300901590152e-02  -6.764485961994736e-03
     4   -4.881802253309810e-03   4.081880517068013e-03  -8.285683637058329e-02
     5    9.181922731066455e-02  -1.202777275797847e-01   2.846700840961559e-01





 ###########################################
 # Finishing finite difference calculation #
 ###########################################

 Requested basis set is def2-SVPD
 There are 39 shells and 97 basis functions
 **********************************************************************
 **                                                                  **
 **                       VIBRATIONAL ANALYSIS                       **
 **                       --------------------                       **
 **                                                                  **
 **        VIBRATIONAL FREQUENCIES (CM**-1) AND NORMAL MODES         **
 **     FORCE CONSTANTS (mDYN/ANGSTROM) AND REDUCED MASSES (AMU)     **
 **                  INFRARED INTENSITIES (KM/MOL)                   **
 **                                                                  **
 **********************************************************************
 

 Mode:                 1                      2                      3
 Frequency:       501.86                 502.01                 692.98
 Force Cnst:      2.0526                 2.0542                 3.8476
 Red. Mass:      13.8316                13.8345                13.5988
 IR Active:          YES                    YES                    YES
 IR Intens:        1.979                  1.965                 13.067
 Raman Active:       YES                    YES                    YES
               X      Y      Z        X      Y      Z        X      Y      Z
 H          0.000  0.000 -0.512    0.001  0.512  0.000    0.472 -0.001  0.000
 C          0.000  0.000 -0.251    0.001  0.251  0.000    0.446  0.000  0.000
 F         -0.000  0.000  0.530   -0.062  0.406 -0.000   -0.102  0.427 -0.000
 F         -0.054 -0.405 -0.172    0.031 -0.296  0.405   -0.102 -0.213 -0.370
 F          0.054  0.405 -0.172    0.031 -0.296 -0.405   -0.102 -0.213  0.370
 TransDip   0.000  0.000 -0.045    0.000  0.045  0.000    0.116  0.000  0.000

 Mode:                 4                      5                      6
 Frequency:      1130.77                1135.53                1135.71
 Force Cnst:      6.3543                 4.5357                 4.5329
 Red. Mass:       8.4347                 5.9703                 5.9648
 IR Active:          YES                    YES                    YES
 IR Intens:       96.483                309.154                309.005
 Raman Active:       YES                    YES                    YES
               X      Y      Z        X      Y      Z        X      Y      Z
 H          0.656  0.018  0.000   -0.000 -0.000  0.782   -0.011  0.782  0.000
 C          0.633  0.013  0.000   -0.000 -0.000  0.537   -0.011  0.537  0.000
 F         -0.148 -0.192 -0.000    0.000  0.000 -0.026   -0.116 -0.224 -0.000
 F         -0.144  0.092  0.160    0.103 -0.087 -0.177    0.062 -0.078 -0.090
 F         -0.144  0.092 -0.160   -0.103  0.087 -0.177    0.062 -0.078  0.090
 TransDip   0.314  0.012  0.000   -0.000 -0.000  0.563   -0.006  0.563  0.000

 Mode:                 7                      8                      9
 Frequency:      1370.66                1370.70                3136.79
 Force Cnst:      1.3378                 1.3376                 6.3197
 Red. Mass:       1.2086                 1.2084                 1.0901
 IR Active:          YES                    YES                    YES
 IR Intens:       39.589                 39.533                 23.838
 Raman Active:       YES                    YES                    YES
               X      Y      Z        X      Y      Z        X      Y      Z
 H          0.000  0.991  0.000   -0.000 -0.000  0.991    0.996  0.000  0.000
 C          0.000 -0.128 -0.000   -0.000  0.000 -0.128   -0.087  0.000  0.000
 F         -0.024  0.004  0.000    0.000 -0.000  0.014    0.001 -0.000  0.000
 F          0.012  0.012 -0.004    0.021 -0.004  0.007    0.001  0.000  0.000
 F          0.012  0.012  0.004   -0.021  0.004  0.007    0.001  0.000 -0.000
 TransDip   0.000 -0.202 -0.000   -0.000  0.000 -0.201   -0.156  0.000 -0.000

 STANDARD THERMODYNAMIC QUANTITIES AT   298.15 K  AND     1.00 ATM

   This Molecule has  0 Imaginary Frequencies
   Zero point vibrational energy:       15.692 kcal/mol

   Atom    1 Element H  Has Mass    1.00783
   Atom    2 Element C  Has Mass   12.00000
   Atom    3 Element F  Has Mass   18.99840
   Atom    4 Element F  Has Mass   18.99840
   Atom    5 Element F  Has Mass   18.99840
   Molecular Mass:    70.003030 amu
   Principal axes and moments of inertia in amu*Bohr^2:
                             1           2           3
    Eigenvalues --      176.18916   176.19898   321.33209
          X               0.00000     0.00000    -1.00000
          Y               0.00000     1.00000     0.00000
          Z               1.00000    -0.00000     0.00000
   Rotational Symmetry Number is   1
   The Molecule is an Asymmetric Top
   Translational Enthalpy:        0.889 kcal/mol
   Rotational Enthalpy:           0.889 kcal/mol
   Vibrational Enthalpy:         16.096 kcal/mol
   gas constant (RT):             0.592 kcal/mol
   Translational Entropy:        38.655  cal/mol.K
   Rotational Entropy:           23.815  cal/mol.K
   Vibrational Entropy:           1.824  cal/mol.K

   Total Enthalpy:               18.466 kcal/mol
   Total Entropy:                64.295  cal/mol.K

   Quasi-RRHO corrections using alpha = 4, and omega = 100 cm^-1
   QRRHO-Vib. Enthalpy:          16.093 kcal/mol
   QRRHO-Vib. Entropy:            1.827  cal/mol.K
   QRRHO-Total Enthalpy:         18.463 kcal/mol
   QRRHO-Total Entropy:          64.297  cal/mol.K
 Total job time:  68.74s(wall), 549.31s(cpu) 
 Tue Nov  5 14:29:07 2024

        *************************************************************
        *                                                           *
        *  Thank you very much for using Q-Chem.  Have a nice day.  *
        *                                                           *
        *************************************************************


