
Running Job 1 of 6 cf3h_h2o_adiabatic_eda.in
qchem cf3h_h2o_adiabatic_eda.in_1305395.0 /data/scratch/cf3h_h2o_adiabatic_eda20241105142708/ 1
/opt/qchem/6.2.0/exe/qcprog.exe_s cf3h_h2o_adiabatic_eda.in_1305395.0 /data/scratch/cf3h_h2o_adiabatic_eda20241105142708/
                  Welcome to Q-Chem
     A Quantum Leap Into The Future Of Chemistry


 Q-Chem 6.2, Q-Chem, Inc., Pleasanton, CA (2024)

 E. Epifanovsky,  A. T. B. Gilbert,  Xintian Feng,  Joonho Lee,  Yuezhi Mao,  
 N. Mardirossian,  P. Pokhilko,  A. White,  M. Wormit,  M. P. Coons,  
 A. L. Dempwolff,  Zhengting Gan,  D. Hait,  P. R. Horn,  L. D. Jacobson,  
 I. Kaliman,  J. Kussmann,  A. W. Lange,  Ka Un Lao,  D. S. Levine,  Jie Liu,  
 S. C. McKenzie,  A. F. Morrison,  K. D. Nanda,  F. Plasser,  D. R. Rehn,  
 M. L. Vidal,  Zhi-Qiang You,  Ying Zhu,  Huseyin Aksu,  B. Alam,  
 B. Albrecht,  A. Aldossary,  E. Alguire,  J. H. Andersen,  
 J. E. Arias-Martinez,  V. Athavale,  D. Barton,  K. Begam,  A. Behn,  
 N. Bellonzi,  Y. A. Bernard,  E. J. Berquist,  H. Burton,  A. Carreras,  
 K. Carter-Fenk,  Mathew Chow,  Romit Chakraborty,  Chandrima Chakravarty,  
 Junhan Chen,  A. D. Chien,  K. D. Closser,  V. Cofer-Shabica,  L. Cunha,  
 S. Dasgupta,  Jia Deng,  Joseph Dickinson,  M. de Wergifosse,  
 M. Diedenhofen,  Hainam Do,  Wenjie Dou,  S. Ehlert,  Po-Tung Fang,  
 S. Fatehi,  Qingguo Feng,  Jonathan Fetherolf,  T. Friedhoff,  
 Thomas Froitzheim,  Sarai Folkestad,  B. Ganoe,  J. Gayvert,  Qinghui Ge,  
 G. Gidofalvi,  M. Gimferrer,  M. Goldey,  Montgomery Gray,  J. Gomes,  
 C. Gonzalez-Espinoza,  S. Gulania,  A. Gunina,  J. A. Gyamfi,  
 M. W. D. Hanson-Heine,  P. H. P. Harbach,  A. W. Hauser,  M. F. Herbst,  
 M. Hernandez Vera,  M. Hodecker,  Z. C. Holden,  S. Houck,  Xunkun Huang,  
 Kerwin Hui,  B. C. Huynh,  K. Ikeda,  M. Ivanov,  Nayanthara K. Jayadev,  
 Hyunjun Ji,  Zuxin Jin,  Hanjie Jiang,  Subrata Jana,  B. Kaduk,  
 S. Kaehler,  R. Kang,  K. Khistyaev,  Jaehoon Kim,  Yongbin Kim,  
 P. Klunzinger,  Z. Koczor-Benda,  Joong Hoon Koh,  D. Kosenkov,  
 Saikiran Kotaru,  L. Koulias,  T. Kowalczyk,  C. M. Krauter,  K. Kue,  
 A. Kunitsa,  T. Kus,  A. Landau,  K. V. Lawler,  D. Lefrancois,  S. Lehtola,  
 Rain Li,  Shaozhi Li,  Tao E. Li,  Yi-Pei Li,  Jiashu Liang,  M. Liebenthal,  
 Hung-Hsuan Lin,  You-Sheng Lin,  Fenglai Liu,  Kuan-Yu Liu,  Xiao Liu,  
 M. Loipersberger,  A. Luenser,  C. Malbon,  Aniket Mandal,  Manisha,  
 A. Manjanath,  P. Manohar,  E. Mansoor,  S. F. Manzer,  Shan-Ping Mao,  
 A. V. Marenich,  T. Markovich,  S. Mason,  F. Matz,  S. A. Maurer,  
 Samuel May,  Alexandra McIsaac,  P. F. McLaughlin,  M. F. S. J. Menger,  
 J.-M. Mewes,  S. A. Mewes,  P. Morgante,  Mohammad Mostafanejad,  
 Madhubani Mukherjee,  J. W. Mullinax,  Quyen Nguyen,  Avik Kumar Ojha,  
 K. J. Oosterbaan,  Eno Paenurk,  Xiaoliang Pan,  G. Paran,  V. Parravicini,  
 Alexander C. Paul,  Suranjan K. Paul,  F. Pavosevic,  Zheng Pei,  S. Prager,  
 E. I. Proynov,  E. Ramos,  B. Rana,  A. E. Rask,  A. Rettig,  R. M. Richard,  
 F. Rob,  E. Rossomme,  T. Scheele,  M. Scheurer,  M. Schneider,  
 P. E. Schneider,  Tim K. Schramm,  N. Sergueev,  S. M. Sharada,  
 Hengyuan Shen,  W. Skomorowski,  D. W. Small,  C. J. Stein,  
 Alistair J. Sterling,  Yingli Su,  Yu-Chuan Su,  E. J. Sundstrom,  
 J. Talbot,  Zhen Tao,  J. Thirman,  Hung-Yi Tsai,  T. Tsuchimochi,  
 N. M. Tubman,  C. Utku,  S. P. Veccham,  O. Vydrov,  Rahel Weiss,  
 J. Wenzel,  Jonathan Wong,  J. Witte,  H. Wu,  Yanze Wu,  A. Yamada,  
 Chou-Hsun Yang,  Kun Yao,  S. Yeganeh,  S. R. Yost,  Qi Yu,  A. Zech,  
 F. Zeller,  Chongxiao Zhao,  Igor Ying Zhang,  Xing Zhang,  Yu Zhang,  
 D. Zuev,  A. Aspuru-Guzik,  A. T. Bell,  N. A. Besley,  K. B. Bravaya,  
 B. R. Brooks,  D. Casanova,  Jeng-Da Chai,  Hsing-Ta Chen,  S. Coriani,  
 C. J. Cramer,  A. E. DePrince, III,  R. A. DiStasio Jr.,  A. Dreuw,  
 B. D. Dunietz,  T. R. Furlani,  W. A. Goddard III,  S. Grimme,  
 S. Hammes-Schiffer,  T. Head-Gordon,  W. J. Hehre,  Chao-Ping Hsu,  
 T.-C. Jagau,  Yousung Jung,  A. Klamt,  Jing Kong,  D. S. Lambrecht,  
 Xiangyuan Li,  WanZhen Liang,  N. J. Mayhall,  C. W. McCurdy,  J. B. Neaton,  
 T. Neudecker,  C. Ochsenfeld,  J. A. Parkhill,  R. Peverati,  
 V. A. Rassolov,  Haisheng Ren,  Yihan Shao,  L. V. Slipchenko,  
 R. P. Steele,  J. E. Subotnik,  A. J. W. Thom,  A. Tkatchenko,  
 D. G. Truhlar,  T. Van Voorhis,  Fan Wang,  T. A. Wesolowski,  K. B. Whaley,  
 H. L. Woodcock III,  P. M. Zimmerman,  S. Faraji,  P. M. W. Gill,  
 M. Head-Gordon,  J. M. Herbert,  A. I. Krylov

 Contributors to earlier versions of Q-Chem not listed above: 
 R. D. Adamson,  B. Austin,  R. Baer,  J. Baker,  G. J. O. Beran,  
 K. Brandhorst,  S. T. Brown,  E. F. C. Byrd,  Arup K. Chakraborty,  
 G. K. L. Chan,  Chun-Min Chang,  Yunqing Chen,  C.-L. Cheng,  
 Siu Hung Chien,  D. M. Chipman,  D. L. Crittenden,  H. Dachsel,  
 R. J. Doerksen,  A. D. Dutoi,  R. G. Edgar,  J. Fosso-Tande,  
 L. Fusti-Molnar,  D. Ghosh,  A. Ghysels,  A. Golubeva-Zadorozhnaya,  
 J. Gonthier,  M. S. Gordon,  S. R. Gwaltney,  G. Hawkins,  J. E. Herr,  
 A. Heyden,  S. Hirata,  E. G. Hohenstein,  G. Kedziora,  F. J. Keil,  
 C. Kelley,  Jihan Kim,  R. A. King,  R. Z. Khaliullin,  P. P. Korambath,  
 W. Kurlancheek,  A. Laurent,  A. M. Lee,  M. S. Lee,  S. V. Levchenko,  
 Ching Yeh Lin,  D. Liotard,  E. Livshits,  R. C. Lochan,  I. Lotan,  
 L. A. Martinez-Martinez,  P. E. Maslen,  N. Nair,  D. P. O'Neill,  
 D. Neuhauser,  E. Neuscamman,  C. M. Oana,  R. Olivares-Amaya,  R. Olson,  
 T. M. Perrine,  B. Peters,  P. A. Pieniazek,  A. Prociuk,  Y. M. Rhee,  
 J. Ritchie,  M. A. Rohrdanz,  E. Rosta,  N. J. Russ,  H. F. Schaefer III,  
 M. W. Schmidt,  N. E. Schultz,  S. Sharma,  N. Shenvi,  C. D. Sherrill,  
 A. C. Simmonett,  A. Sodt,  T. Stein,  D. Stuck,  K. S. Thanthiriwatte,  
 V. Vanovschi,  L. Vogt,  Tao Wang,  A. Warshel,  M. A. Watson,  
 C. F. Williams,  Q. Wu,  X. Xu,  Jun Yang,  W. Zhang,  Yan Zhao

   Please cite Q-Chem as follows:
  "Software for the frontiers of quantum chemistry:
   An overview of developments in the Q-Chem 5 package"
   J. Chem. Phys. 155, 084801 (2021)
   https://doi.org/10.1063/5.0055522 (open access)

 Q-Chem 6.2.0 for Intel X86 EM64T Linux

 Parts of Q-Chem use Armadillo 9.900.5 (Nocturnal Misbehaviour).
 http://arma.sourceforge.net/

 Q-Chem begins on Tue Nov  5 14:27:08 2024  

 Host: 
0

     Scratch files written to /data/scratch/cf3h_h2o_adiabatic_eda20241105142708//
 May224 |scratch|qcdevops|jenkins|workspace|build_RNUM -1
 Processing $rem in /opt/qchem/6.2.0/config/preferences:
 Processing $rem in /home/ymao/.qchemrc:

 Checking the input file for inconsistencies... 	...done.

--------------------------------------------------------------
User input:
--------------------------------------------------------------
$molecule
0 1
--
0 1
O    2.77773    -0.01318   0.00000
H    3.35837    -0.00196   -0.76769
H    3.35837    -0.00196   0.76769
--
0 1
H    0.59878    -0.04551   0.00000
C    -0.49895   -0.00740   0.00000
F    -1.02270   -1.24292   0.00000
F    -0.95441   0.63633    1.08615
F    -0.95441   0.63633    -1.08615
$end

$rem
JOBTYPE  OPT
GEN_SCFMAN  TRUE
METHOD  B3LYP
DFT_D  D3_BJ
BASIS  DEF2-SVPD
UNRESTRICTED  FALSE
MAX_SCF_CYCLES  2000
THRESH  14
SCF_CONVERGENCE  9
MEM_TOTAL  8000
MEM_STATIC  2000
SCF_GUESS  FRAGMO
SYMMETRY  FALSE
SYM_IGNORE  FALSE
SCF_ALGORITHM  DIIS
BASIS_LIN_DEP_THRESH  6
IDERIV  1
XC_GRID  000075000302
NL_GRID  1
FD_MAT_VEC_PROD  FALSE
GEOM_OPT_TOL_GRADIENT  50
GEOM_OPT_TOL_DISPLACEMENT  50
GEOM_OPT_TOL_ENERGY  10
GEOM_OPT_DRIVER  OPTIMIZE
GEOM_OPT_MAX_CYCLES  200
$end

--------------------------------------------------------------
 Adding empirical dispersion correction 
 ----------------------------------------------------------------
 Doing -D3(BJ) with
 s6  =   1.00000
 s8  =   1.98890
 a1  =   0.39810
 a2  =   4.42110
 ----------------------------------------------------------------
 -D3 energy without 3body term =     -0.0042577738 hartrees
 ----------------------------------------------------------------
             Standard Nuclear Orientation (Angstroms)
    I     Atom           X                Y                Z
 ----------------------------------------------------------------
    1      O       2.7740555556    -0.0207581315     0.0000000000
    2      H       3.3547185505    -0.0107989973    -0.7676900000
    3      H       3.3547185505    -0.0107989973     0.7676900000
    4      H       0.5950404893    -0.0483565417    -0.0000000000
    5      C      -0.5026041682    -0.0078629494    -0.0000000000
    6      F      -1.0290358217    -1.2422427317    -0.0000000000
    7      F      -0.9566652572     0.6368545483     1.0861500000
    8      F      -0.9566652572     0.6368545483    -1.0861500000
 ----------------------------------------------------------------
 Molecular Point Group                 Cs    NOp =  2
 Largest Abelian Subgroup              Cs    NOp =  2
 Nuclear Repulsion Energy =         189.00535619 hartrees
 There are       22 alpha and       22 beta electrons
 Requested basis set is def2-SVPD
 There are 56 shells and 136 basis functions

 Total QAlloc Memory Limit   8000 MB
 Mega-Array Size      1956 MB
 MEM_STATIC part      2000 MB

 A cutoff of  1.0D-14 yielded   1534 shell pairs
 There are      9082 function pairs (     10477 Cartesian)
 Smallest overlap matrix eigenvalue = 1.82E-04

 Scale SEOQF with 1.000000e-01/1.000000e-01/1.000000e-01

 Standard Electronic Orientation quadrupole field applied
 Nucleus-field energy     =     0.0000000031 hartrees
 Attempting to make child job directory: /data/scratch/cf3h_h2o_adiabatic_eda20241105142708//Frg1/
 Attempting to make child job directory: /data/scratch/cf3h_h2o_adiabatic_eda20241105142708//Frg2/
 Creating input file /data/scratch/cf3h_h2o_adiabatic_eda20241105142708/Frg1.input
 using default PutDataFrgm: nothing
 calling putenv with: QCSCRATCH=/data/scratch/cf3h_h2o_adiabatic_eda20241105142708/ 
 Spawning Job For Fragment 0
 Done Job For Fragment 0
 calling putenv with: QCSCRATCH=/data/scratch 
 calling putenv with: QCTHREADS=16 
 Creating input file /data/scratch/cf3h_h2o_adiabatic_eda20241105142708/Frg2.input
 using default PutDataFrgm: nothing
 calling putenv with: QCSCRATCH=/data/scratch/cf3h_h2o_adiabatic_eda20241105142708/ 
 Spawning Job For Fragment 1
 Done Job For Fragment 1
 calling putenv with: QCSCRATCH=/data/scratch 
 calling putenv with: QCTHREADS=16 
 Time for running child jobs:  CPU 2.36 s  wall 3.30 s

 -----------------------------------------------------------------------
  General SCF calculation program by
  Eric Jon Sundstrom, Paul Horn, Yuezhi Mao, Dmitri Zuev, Alec White,
  David Stuck, Shaama M.S., Shane Yost, Joonho Lee, David Small,
  Daniel Levine, Susi Lehtola, Hugh Burton, Evgeny Epifanovsky,
  Bang C. Huynh
 -----------------------------------------------------------------------
 Exchange:     0.2000 Hartree-Fock + 0.0800 Slater + 0.7200 B88
 Correlation:  0.1900 VWN1RPA + 0.8100 LYP
 Using Euler-Maclaurin-Lebedev (75,302) quadrature formula
 Dispersion:   Grimme D3
 using 16 threads for integral computing
 -------------------------------------------------------
 OpenMP Integral computing Module                
 Release: version 1.0, May 2013, Q-Chem Inc. Pittsburgh 
 -------------------------------------------------------
 A restricted SCF calculation will be
 performed using DIIS
 SCF converges when DIIS error is below 1.0e-09
 ---------------------------------------
  Cycle       Energy         DIIS error
 ---------------------------------------
    1    -414.3919220403      1.35e-03  
    2    -414.3956620647      1.39e-04  
    3    -414.3956797817      1.39e-04  
    4    -414.3957056301      3.19e-05  
    5    -414.3957071112      6.12e-06  
    6    -414.3957071741      1.76e-06  
    7    -414.3957071799      1.85e-07  
    8    -414.3957071799      1.41e-07  
    9    -414.3957071800      1.69e-08  
   10    -414.3957071800      9.48e-10  Convergence criterion met
 ---------------------------------------
 SCF time:   CPU 48.40s  wall 3.00s 
 SCF   energy =  -414.39570718
 Total energy =  -414.39570718
 
 --------------------------------------------------------------
             Orbital Energies (a.u.) and Symmetries
 --------------------------------------------------------------
 
 Alpha MOs, Restricted
 -- Occupied --                  
-24.730 -24.730 -24.729 -19.179 -10.431  -1.301  -1.211  -1.211
  1 A'    1 A"    2 A'    3 A'    4 A'    5 A'    2 A"    6 A'                 
 -1.033  -0.709  -0.605  -0.595  -0.595  -0.569  -0.474  -0.474
  7 A'    8 A'    9 A'    3 A"   10 A'    4 A"    5 A"   11 A'                 
 -0.438  -0.438  -0.436  -0.416  -0.387  -0.351
  6 A"   12 A'   13 A'    7 A"   14 A'   15 A'                                 
 -- Virtual --                   
 -0.021   0.045   0.046   0.066   0.077   0.090   0.114   0.137
 16 A'    8 A"   17 A'   18 A'    9 A"   19 A'   20 A'   10 A"                 
  0.146   0.151   0.155   0.167   0.174   0.179   0.195   0.202
 21 A'   22 A'   11 A"   23 A'   12 A"   24 A'   25 A'   26 A'                 
  0.213   0.225   0.237   0.247   0.259   0.292   0.297   0.325
 13 A"   27 A'   14 A"   28 A'   15 A"   29 A'   30 A'   16 A"                 
  0.348   0.350   0.376   0.388   0.400   0.402   0.411   0.412
 17 A"   31 A'   32 A'   33 A'   34 A'   18 A"   19 A"   35 A'                 
  0.418   0.441   0.525   0.526   0.539   0.560   0.575   0.587
 20 A"   36 A'   37 A'   21 A"   38 A'   39 A'   22 A"   40 A'                 
  0.594   0.613   0.636   0.684   0.685   0.707   0.723   0.726
 23 A"   41 A'   42 A'   43 A'   24 A"   44 A'   25 A"   45 A'                 
  0.742   0.769   0.772   0.803   0.803   0.818   0.850   0.886
 26 A"   27 A"   46 A'   47 A'   28 A"   48 A'   29 A"   49 A'                 
  0.931   0.947   1.002   1.003   1.040   1.114   1.139   1.195
 30 A"   50 A'   31 A"   51 A'   52 A'   53 A'   32 A"   54 A'                 
  1.220   1.471   1.504   1.517   1.638   1.665   1.686   1.720
 55 A'   56 A'   33 A"   57 A'   34 A"   35 A"   58 A'   59 A'                 
  1.722   1.722   1.724   1.753   1.786   1.846   1.938   1.959
 60 A'   36 A"   37 A"   38 A"   61 A'   62 A'   39 A"   63 A'                 
  2.015   2.050   2.051   2.099   2.099   2.155   2.201   2.215
 64 A'   40 A"   65 A'   66 A'   41 A"   67 A'   42 A"   68 A'                 
  2.262   2.300   2.306   2.317   2.406   2.900   2.984   3.023
 43 A"   69 A'   44 A"   70 A'   71 A'   72 A'   73 A'   45 A"                 
  3.197   3.245   3.307   3.319   3.320   3.336   3.341   3.385
 74 A'   46 A"   47 A"   75 A'   48 A"   76 A'   49 A"   77 A'                 
  3.392   3.411   3.507   3.627   3.677   3.679   3.754   3.953
 50 A"   78 A'   79 A'   80 A'   81 A'   51 A"   82 A'   52 A"                 
  3.954   4.000
 83 A'   53 A"                                                                 
 
 Beta MOs, Restricted
 -- Occupied --                  
-24.730 -24.730 -24.729 -19.179 -10.431  -1.301  -1.211  -1.211
  1 A'    1 A"    2 A'    3 A'    4 A'    5 A'    2 A"    6 A'                 
 -1.033  -0.709  -0.605  -0.595  -0.595  -0.569  -0.474  -0.474
  7 A'    8 A'    9 A'    3 A"   10 A'    4 A"    5 A"   11 A'                 
 -0.438  -0.438  -0.436  -0.416  -0.387  -0.351
  6 A"   12 A'   13 A'    7 A"   14 A'   15 A'                                 
 -- Virtual --                   
 -0.021   0.045   0.046   0.066   0.077   0.090   0.114   0.137
 16 A'    8 A"   17 A'   18 A'    9 A"   19 A'   20 A'   10 A"                 
  0.146   0.151   0.155   0.167   0.174   0.179   0.195   0.202
 21 A'   22 A'   11 A"   23 A'   12 A"   24 A'   25 A'   26 A'                 
  0.213   0.225   0.237   0.247   0.259   0.292   0.297   0.325
 13 A"   27 A'   14 A"   28 A'   15 A"   29 A'   30 A'   16 A"                 
  0.348   0.350   0.376   0.388   0.400   0.402   0.411   0.412
 17 A"   31 A'   32 A'   33 A'   34 A'   18 A"   19 A"   35 A'                 
  0.418   0.441   0.525   0.526   0.539   0.560   0.575   0.587
 20 A"   36 A'   37 A'   21 A"   38 A'   39 A'   22 A"   40 A'                 
  0.594   0.613   0.636   0.684   0.685   0.707   0.723   0.726
 23 A"   41 A'   42 A'   43 A'   24 A"   44 A'   25 A"   45 A'                 
  0.742   0.769   0.772   0.803   0.803   0.818   0.850   0.886
 26 A"   27 A"   46 A'   47 A'   28 A"   48 A'   29 A"   49 A'                 
  0.931   0.947   1.002   1.003   1.040   1.114   1.139   1.195
 30 A"   50 A'   31 A"   51 A'   52 A'   53 A'   32 A"   54 A'                 
  1.220   1.471   1.504   1.517   1.638   1.665   1.686   1.720
 55 A'   56 A'   33 A"   57 A'   34 A"   35 A"   58 A'   59 A'                 
  1.722   1.722   1.724   1.753   1.786   1.846   1.938   1.959
 60 A'   36 A"   37 A"   38 A"   61 A'   62 A'   39 A"   63 A'                 
  2.015   2.050   2.051   2.099   2.099   2.155   2.201   2.215
 64 A'   40 A"   65 A'   66 A'   41 A"   67 A'   42 A"   68 A'                 
  2.262   2.300   2.306   2.317   2.406   2.900   2.984   3.023
 43 A"   69 A'   44 A"   70 A'   71 A'   72 A'   73 A'   45 A"                 
  3.197   3.245   3.307   3.319   3.320   3.336   3.341   3.385
 74 A'   46 A"   47 A"   75 A'   48 A"   76 A'   49 A"   77 A'                 
  3.392   3.411   3.507   3.627   3.677   3.679   3.754   3.953
 50 A"   78 A'   79 A'   80 A'   81 A'   51 A"   82 A'   52 A"                 
  3.954   4.000
 83 A'   53 A"                                                                 
 --------------------------------------------------------------
 
          Ground-State Mulliken Net Atomic Charges

     Atom                 Charge (a.u.)
  ----------------------------------------
      1 O                    -0.201645
      2 H                     0.114305
      3 H                     0.114305
      4 H                    -0.796204
      5 C                     1.965390
      6 F                    -0.396238
      7 F                    -0.399956
      8 F                    -0.399956
  ----------------------------------------
  Sum of atomic charges =     0.000000

 -----------------------------------------------------------------
                    Cartesian Multipole Moments
 -----------------------------------------------------------------
    Charge (ESU x 10^10)
                 0.0000
    Dipole Moment (Debye)
         X       4.1624      Y      -0.0353      Z      -0.0000
       Tot       4.1626
    Quadrupole Moments (Debye-Ang)
        XX     -16.3572     XY      -0.0018     YY     -30.5740
        XZ      -0.0000     YZ       0.0000     ZZ     -27.2477
    Octopole Moments (Debye-Ang^2)
       XXX      49.6137    XXY       0.3521    XYY      -3.1392
       YYY       1.4411    XXZ      -0.0000    XYZ      -0.0000
       YYZ      -0.0000    XZZ       7.5668    YZZ      -1.3114
       ZZZ      -0.0000
    Hexadecapole Moments (Debye-Ang^3)
      XXXX    -234.2373   XXXY       0.4674   XXYY    -100.4376
      XYYY      -0.3356   YYYY     -95.5305   XXXZ      -0.0000
      XXYZ       0.0000   XYYZ      -0.0000   YYYZ      -0.0000
      XXZZ     -65.5296   XYZZ       0.6877   YYZZ     -32.0134
      XZZZ       0.0000   YZZZ      -0.0000   ZZZZ     -94.7070
 -----------------------------------------------------------------
 Calculating analytic gradient of the SCF energy
 Gradient of SCF Energy
            1           2           3           4           5           6
    1   0.0015880  -0.0006360  -0.0006360   0.0008436  -0.0019862   0.0003637
    2   0.0000323  -0.0000101  -0.0000101  -0.0000797   0.0000909   0.0024276
    3   0.0000000   0.0013291  -0.0013291  -0.0000000   0.0000000   0.0000000
            7           8
    1   0.0002315   0.0002315
    2  -0.0012254  -0.0012254
    3  -0.0021171   0.0021171
 Max gradient component =       2.428E-03
 RMS gradient           =       1.111E-03
 Gradient time:  CPU 18.49 s  wall 1.16 s
 Geometry Optimization Parameters
   NAtoms,    NIC,     NZ,  NCons,   NDum,   NFix, NCnnct, MaxDiis
        8      38       0       0       0       0       0       0


** GEOMETRY OPTIMIZATION IN DELOCALIZED INTERNAL COORDINATES **
   Searching for a Minimum

   Optimization Cycle:   1

                       Coordinates (Angstroms)
     ATOM                X               Y               Z
      1  O         2.7740555556   -0.0207581315    0.0000000000
      2  H         3.3547185505   -0.0107989973   -0.7676900000
      3  H         3.3547185505   -0.0107989973    0.7676900000
      4  H         0.5950404893   -0.0483565417    0.0000000000
      5  C        -0.5026041682   -0.0078629494    0.0000000000
      6  F        -1.0290358217   -1.2422427317    0.0000000000
      7  F        -0.9566652572    0.6368545483    1.0861500000
      8  F        -0.9566652572    0.6368545483   -1.0861500000
   Point Group: cs    Number of degrees of freedom:    11


   Energy is   -414.395707180


 Attempting to generate delocalized internal coordinates
 Initial Hessian constructed with Jon Baker's OPTIMIZE code

 11 Hessian modes will be used to form the next step
  Hessian Eigenvalues:
     0.002158    0.032463    0.093882    0.160000    0.182067    0.203045
     0.207306    0.338606    0.549158    0.567104    0.567707

 Minimum search - taking simple RFO step
 Searching for Lamda that Minimizes Along All modes
 Value Taken    Lamda =  -0.00006237
 Step Taken.  Stepsize is  0.016227

                             Maximum     Tolerance    Cnvgd?
         Gradient           0.003803      0.000050      NO
         Displacement       0.009366      0.000050      NO
         Energy change     *********      0.000000      NO


 New Cartesian Coordinates Obtained by Inverse Iteration

 Displacement from previous Coordinates is:  0.028144
 Adding empirical dispersion correction 
 ----------------------------------------------------------------
 Doing -D3(BJ) with
 s6  =   1.00000
 s8  =   1.98890
 a1  =   0.39810
 a2  =   4.42110
 ----------------------------------------------------------------
 -D3 energy without 3body term =     -0.0042639415 hartrees
 ----------------------------------------------------------------
             Standard Nuclear Orientation (Angstroms)
    I     Atom           X                Y                Z
 ----------------------------------------------------------------
    1      O       2.7685563696    -0.0204678444     0.0000000000
    2      H       3.3492079356    -0.0109856581    -0.7694481148
    3      H       3.3492079356    -0.0109856581     0.7694481148
    4      H       0.5946845731    -0.0480668680     0.0000000000
    5      C      -0.5011508118    -0.0077369408     0.0000000000
    6      F      -1.0238202395    -1.2461171759     0.0000000000
    7      F      -0.9515615606     0.6386254465     1.0894343636
    8      F      -0.9515615606     0.6386254465    -1.0894343636
 ----------------------------------------------------------------
 Molecular Point Group                 Cs    NOp =  2
 Largest Abelian Subgroup              Cs    NOp =  2
 Nuclear Repulsion Energy =         188.82190489 hartrees
 There are       22 alpha and       22 beta electrons
 Applying Cartesian multipole field
    Component          Value
    ---------          -----
     (2,0,0)        1.00000E-11
     (0,2,0)        2.00000E-11
     (0,0,2)       -3.00000E-11
 Nucleus-field energy     =     0.0000000031 hartrees
 Requested basis set is def2-SVPD
 There are 56 shells and 136 basis functions
 A cutoff of  1.0D-14 yielded   1534 shell pairs
 There are      9082 function pairs (     10477 Cartesian)
 Smallest overlap matrix eigenvalue = 1.80E-04
 Read the previous MOs as SCF guess

 -----------------------------------------------------------------------
  General SCF calculation program by
  Eric Jon Sundstrom, Paul Horn, Yuezhi Mao, Dmitri Zuev, Alec White,
  David Stuck, Shaama M.S., Shane Yost, Joonho Lee, David Small,
  Daniel Levine, Susi Lehtola, Hugh Burton, Evgeny Epifanovsky,
  Bang C. Huynh
 -----------------------------------------------------------------------
 Exchange:     0.2000 Hartree-Fock + 0.0800 Slater + 0.7200 B88
 Correlation:  0.1900 VWN1RPA + 0.8100 LYP
 Using Euler-Maclaurin-Lebedev (75,302) quadrature formula
 Dispersion:   Grimme D3
 A restricted SCF calculation will be
 performed using DIIS
 SCF converges when DIIS error is below 1.0e-09
 ---------------------------------------
  Cycle       Energy         DIIS error
 ---------------------------------------
    1    -414.3957053354      1.26e-04  
    2    -414.3957304220      2.26e-05  
    3    -414.3957305095      2.31e-05  
    4    -414.3957313993      4.86e-06  
    5    -414.3957314337      9.93e-07  
    6    -414.3957314353      3.02e-07  
    7    -414.3957314355      1.07e-07  
    8    -414.3957314355      7.72e-09  
    9    -414.3957314355      9.26e-10  Convergence criterion met
 ---------------------------------------
 SCF time:   CPU 43.47s  wall 3.00s 
 SCF   energy =  -414.39573144
 Total energy =  -414.39573144
 
 --------------------------------------------------------------
             Orbital Energies (a.u.) and Symmetries
 --------------------------------------------------------------
 
 Alpha MOs, Restricted
 -- Occupied --                  
-24.730 -24.730 -24.730 -19.179 -10.431  -1.300  -1.211  -1.211
  1 A'    1 A"    2 A'    3 A'    4 A'    5 A'    2 A"    6 A'                 
 -1.032  -0.709  -0.604  -0.594  -0.594  -0.568  -0.474  -0.474
  7 A'    8 A'    9 A'    3 A"   10 A'    4 A"    5 A"   11 A'                 
 -0.438  -0.438  -0.435  -0.417  -0.386  -0.351
  6 A"   12 A'   13 A'    7 A"   14 A'   15 A'                                 
 -- Virtual --                   
 -0.021   0.045   0.046   0.066   0.077   0.090   0.114   0.138
 16 A'    8 A"   17 A'   18 A'    9 A"   19 A'   20 A'   10 A"                 
  0.145   0.151   0.155   0.167   0.173   0.179   0.195   0.202
 21 A'   22 A'   11 A"   23 A'   12 A"   24 A'   25 A'   26 A'                 
  0.213   0.221   0.237   0.246   0.259   0.292   0.298   0.324
 13 A"   27 A'   14 A"   28 A'   15 A"   29 A'   30 A'   16 A"                 
  0.348   0.350   0.375   0.388   0.400   0.402   0.411   0.412
 17 A"   31 A'   32 A'   33 A'   34 A'   18 A"   19 A"   35 A'                 
  0.419   0.441   0.525   0.526   0.539   0.561   0.575   0.588
 20 A"   36 A'   37 A'   21 A"   38 A'   39 A'   22 A"   40 A'                 
  0.594   0.613   0.636   0.684   0.685   0.708   0.725   0.727
 23 A"   41 A'   42 A'   43 A'   24 A"   44 A'   25 A"   45 A'                 
  0.741   0.769   0.772   0.803   0.805   0.817   0.851   0.887
 26 A"   27 A"   46 A'   28 A"   47 A'   48 A'   29 A"   49 A'                 
  0.932   0.947   1.001   1.002   1.039   1.110   1.139   1.196
 30 A"   50 A'   31 A"   51 A'   52 A'   53 A'   32 A"   54 A'                 
  1.221   1.471   1.504   1.517   1.637   1.666   1.683   1.716
 55 A'   56 A'   33 A"   57 A'   34 A"   35 A"   58 A'   36 A"                 
  1.721   1.722   1.725   1.752   1.787   1.845   1.937   1.960
 59 A'   60 A'   37 A"   38 A"   61 A'   62 A'   39 A"   63 A'                 
  2.015   2.048   2.049   2.096   2.096   2.156   2.202   2.216
 64 A'   40 A"   65 A'   66 A'   41 A"   67 A'   42 A"   68 A'                 
  2.260   2.302   2.307   2.319   2.406   2.904   2.983   3.022
 43 A"   69 A'   44 A"   70 A'   71 A'   72 A'   73 A'   45 A"                 
  3.195   3.247   3.308   3.320   3.321   3.338   3.343   3.385
 74 A'   46 A"   47 A"   75 A'   48 A"   76 A'   49 A"   77 A'                 
  3.391   3.411   3.500   3.626   3.672   3.674   3.752   3.950
 50 A"   78 A'   79 A'   80 A'   81 A'   51 A"   82 A'   52 A"                 
  3.950   3.996
 83 A'   53 A"                                                                 
 
 Beta MOs, Restricted
 -- Occupied --                  
-24.730 -24.730 -24.730 -19.179 -10.431  -1.300  -1.211  -1.211
  1 A'    1 A"    2 A'    3 A'    4 A'    5 A'    2 A"    6 A'                 
 -1.032  -0.709  -0.604  -0.594  -0.594  -0.568  -0.474  -0.474
  7 A'    8 A'    9 A'    3 A"   10 A'    4 A"    5 A"   11 A'                 
 -0.438  -0.438  -0.435  -0.417  -0.386  -0.351
  6 A"   12 A'   13 A'    7 A"   14 A'   15 A'                                 
 -- Virtual --                   
 -0.021   0.045   0.046   0.066   0.077   0.090   0.114   0.138
 16 A'    8 A"   17 A'   18 A'    9 A"   19 A'   20 A'   10 A"                 
  0.145   0.151   0.155   0.167   0.173   0.179   0.195   0.202
 21 A'   22 A'   11 A"   23 A'   12 A"   24 A'   25 A'   26 A'                 
  0.213   0.221   0.237   0.246   0.259   0.292   0.298   0.324
 13 A"   27 A'   14 A"   28 A'   15 A"   29 A'   30 A'   16 A"                 
  0.348   0.350   0.375   0.388   0.400   0.402   0.411   0.412
 17 A"   31 A'   32 A'   33 A'   34 A'   18 A"   19 A"   35 A'                 
  0.419   0.441   0.525   0.526   0.539   0.561   0.575   0.588
 20 A"   36 A'   37 A'   21 A"   38 A'   39 A'   22 A"   40 A'                 
  0.594   0.613   0.636   0.684   0.685   0.708   0.725   0.727
 23 A"   41 A'   42 A'   43 A'   24 A"   44 A'   25 A"   45 A'                 
  0.741   0.769   0.772   0.803   0.805   0.817   0.851   0.887
 26 A"   27 A"   46 A'   28 A"   47 A'   48 A'   29 A"   49 A'                 
  0.932   0.947   1.001   1.002   1.039   1.110   1.139   1.196
 30 A"   50 A'   31 A"   51 A'   52 A'   53 A'   32 A"   54 A'                 
  1.221   1.471   1.504   1.517   1.637   1.666   1.683   1.716
 55 A'   56 A'   33 A"   57 A'   34 A"   35 A"   58 A'   36 A"                 
  1.721   1.722   1.725   1.752   1.787   1.845   1.937   1.960
 59 A'   60 A'   37 A"   38 A"   61 A'   62 A'   39 A"   63 A'                 
  2.015   2.048   2.049   2.096   2.096   2.156   2.202   2.216
 64 A'   40 A"   65 A'   66 A'   41 A"   67 A'   42 A"   68 A'                 
  2.260   2.302   2.307   2.319   2.406   2.904   2.983   3.022
 43 A"   69 A'   44 A"   70 A'   71 A'   72 A'   73 A'   45 A"                 
  3.195   3.247   3.308   3.320   3.321   3.338   3.343   3.385
 74 A'   46 A"   47 A"   75 A'   48 A"   76 A'   49 A"   77 A'                 
  3.391   3.411   3.500   3.626   3.672   3.674   3.752   3.950
 50 A"   78 A'   79 A'   80 A'   81 A'   51 A"   82 A'   52 A"                 
  3.950   3.996
 83 A'   53 A"                                                                 
 --------------------------------------------------------------
 
          Ground-State Mulliken Net Atomic Charges

     Atom                 Charge (a.u.)
  ----------------------------------------
      1 O                    -0.203861
      2 H                     0.115628
      3 H                     0.115628
      4 H                    -0.804319
      5 C                     1.978637
      6 F                    -0.398035
      7 F                    -0.401839
      8 F                    -0.401839
  ----------------------------------------
  Sum of atomic charges =     0.000000

 -----------------------------------------------------------------
                    Cartesian Multipole Moments
 -----------------------------------------------------------------
    Charge (ESU x 10^10)
                -0.0000
    Dipole Moment (Debye)
         X       4.1514      Y      -0.0361      Z      -0.0000
       Tot       4.1515
    Quadrupole Moments (Debye-Ang)
        XX     -16.3698     XY      -0.0076     YY     -30.5909
        XZ       0.0000     YZ      -0.0000     ZZ     -27.2525
    Octopole Moments (Debye-Ang^2)
       XXX      49.2089    XXY       0.3336    XYY      -3.1822
       YYY       1.4407    XXZ      -0.0000    XYZ       0.0000
       YYZ      -0.0000    XZZ       7.5470    YZZ      -1.3154
       ZZZ      -0.0000
    Hexadecapole Moments (Debye-Ang^3)
      XXXX    -233.5502   XXXY       0.3861   XXYY    -100.1548
      XYYY      -0.3593   YYYY     -95.9661   XXXZ      -0.0000
      XXYZ      -0.0000   XYYZ      -0.0000   YYYZ      -0.0000
      XXZZ     -65.2314   XYZZ       0.6787   YYZZ     -32.1633
      XZZZ      -0.0000   YZZZ      -0.0000   ZZZZ     -95.1495
 -----------------------------------------------------------------
 Calculating analytic gradient of the SCF energy
 Gradient of SCF Energy
            1           2           3           4           5           6
    1   0.0001628   0.0000404   0.0000404  -0.0002466  -0.0017461   0.0005803
    2   0.0000118   0.0000005   0.0000005  -0.0000546   0.0001048  -0.0001944
    3   0.0000000  -0.0000045   0.0000045  -0.0000000   0.0000000   0.0000000
            7           8
    1   0.0005844   0.0005844
    2   0.0000658   0.0000658
    3   0.0001541  -0.0001541
 Max gradient component =       1.746E-03
 RMS gradient           =       4.217E-04
 Gradient time:  CPU 18.44 s  wall 1.16 s
 Geometry Optimization Parameters
   NAtoms,    NIC,     NZ,  NCons,   NDum,   NFix, NCnnct, MaxDiis
        8      38       0       0       0       0       0       0

 Cartesian Hessian Update
 Hessian updated using BFGS update


** GEOMETRY OPTIMIZATION IN DELOCALIZED INTERNAL COORDINATES **
   Searching for a Minimum

   Optimization Cycle:   2

                       Coordinates (Angstroms)
     ATOM                X               Y               Z
      1  O         2.7685563696   -0.0204678444    0.0000000000
      2  H         3.3492079356   -0.0109856581   -0.7694481148
      3  H         3.3492079356   -0.0109856581    0.7694481148
      4  H         0.5946845731   -0.0480668680    0.0000000000
      5  C        -0.5011508118   -0.0077369408    0.0000000000
      6  F        -1.0238202395   -1.2461171759    0.0000000000
      7  F        -0.9515615606    0.6386254465    1.0894343636
      8  F        -0.9515615606    0.6386254465   -1.0894343636
   Point Group: cs    Number of degrees of freedom:    11


   Energy is   -414.395731435

 Hessian updated using BFGS update

 11 Hessian modes will be used to form the next step
  Hessian Eigenvalues:
     0.002158    0.030020    0.093906    0.158243    0.182083    0.203062
     0.283550    0.348298    0.533890    0.553028    0.567509

 Minimum search - taking simple RFO step
 Searching for Lamda that Minimizes Along All modes
 Value Taken    Lamda =  -0.00001280
 Step Taken.  Stepsize is  0.009904

                             Maximum     Tolerance    Cnvgd?
         Gradient           0.001206      0.000050      NO
         Displacement       0.006220      0.000050      NO
         Energy change     -0.000024      0.000000      NO


 New Cartesian Coordinates Obtained by Inverse Iteration

 Displacement from previous Coordinates is:  0.009353
 Adding empirical dispersion correction 
 ----------------------------------------------------------------
 Doing -D3(BJ) with
 s6  =   1.00000
 s8  =   1.98890
 a1  =   0.39810
 a2  =   4.42110
 ----------------------------------------------------------------
 -D3 energy without 3body term =     -0.0042670765 hartrees
 ----------------------------------------------------------------
             Standard Nuclear Orientation (Angstroms)
    I     Atom           X                Y                Z
 ----------------------------------------------------------------
    1      O       2.7670114247    -0.0203235583     0.0000000000
    2      H       3.3475792030    -0.0110874401    -0.7697754288
    3      H       3.3475792030    -0.0110874401     0.7697754288
    4      H       0.5972515050    -0.0479948046     0.0000000000
    5      C      -0.4982902242    -0.0078033897     0.0000000000
    6      F      -1.0239084272    -1.2453714008     0.0000000000
    7      F      -0.9518300214     0.6382793906     1.0887936871
    8      F      -0.9518300214     0.6382793906    -1.0887936871
 ----------------------------------------------------------------
 Molecular Point Group                 Cs    NOp =  2
 Largest Abelian Subgroup              Cs    NOp =  2
 Nuclear Repulsion Energy =         188.85977792 hartrees
 There are       22 alpha and       22 beta electrons
 Applying Cartesian multipole field
    Component          Value
    ---------          -----
     (2,0,0)        1.00000E-11
     (0,2,0)        2.00000E-11
     (0,0,2)       -3.00000E-11
 Nucleus-field energy     =     0.0000000031 hartrees
 Requested basis set is def2-SVPD
 There are 56 shells and 136 basis functions
 A cutoff of  1.0D-14 yielded   1534 shell pairs
 There are      9082 function pairs (     10477 Cartesian)
 Smallest overlap matrix eigenvalue = 1.79E-04
 Read the previous MOs as SCF guess

 -----------------------------------------------------------------------
  General SCF calculation program by
  Eric Jon Sundstrom, Paul Horn, Yuezhi Mao, Dmitri Zuev, Alec White,
  David Stuck, Shaama M.S., Shane Yost, Joonho Lee, David Small,
  Daniel Levine, Susi Lehtola, Hugh Burton, Evgeny Epifanovsky,
  Bang C. Huynh
 -----------------------------------------------------------------------
 Exchange:     0.2000 Hartree-Fock + 0.0800 Slater + 0.7200 B88
 Correlation:  0.1900 VWN1RPA + 0.8100 LYP
 Using Euler-Maclaurin-Lebedev (75,302) quadrature formula
 Dispersion:   Grimme D3
 A restricted SCF calculation will be
 performed using DIIS
 SCF converges when DIIS error is below 1.0e-09
 ---------------------------------------
  Cycle       Energy         DIIS error
 ---------------------------------------
    1    -414.3957303611      6.96e-05  
    2    -414.3957378290      5.98e-06  
    3    -414.3957378800      5.02e-06  
    4    -414.3957379116      1.61e-06  
    5    -414.3957379154      2.78e-07  
    6    -414.3957379155      7.59e-08  
    7    -414.3957379155      2.17e-08  
    8    -414.3957379155      4.96e-09  
    9    -414.3957379155      3.05e-10  Convergence criterion met
 ---------------------------------------
 SCF time:   CPU 43.16s  wall 3.00s 
 SCF   energy =  -414.39573792
 Total energy =  -414.39573792
 
 --------------------------------------------------------------
             Orbital Energies (a.u.) and Symmetries
 --------------------------------------------------------------
 
 Alpha MOs, Restricted
 -- Occupied --                  
-24.730 -24.730 -24.730 -19.179 -10.431  -1.300  -1.210  -1.210
  1 A'    1 A"    2 A'    3 A'    4 A'    5 A'    2 A"    6 A'                 
 -1.032  -0.709  -0.604  -0.594  -0.594  -0.568  -0.474  -0.474
  7 A'    8 A'    9 A'    3 A"   10 A'    4 A"    5 A"   11 A'                 
 -0.438  -0.438  -0.436  -0.416  -0.387  -0.351
  6 A"   12 A'   13 A'    7 A"   14 A'   15 A'                                 
 -- Virtual --                   
 -0.021   0.045   0.046   0.066   0.077   0.090   0.114   0.137
 16 A'    8 A"   17 A'   18 A'    9 A"   19 A'   20 A'   10 A"                 
  0.145   0.151   0.155   0.167   0.173   0.179   0.195   0.202
 21 A'   22 A'   11 A"   23 A'   12 A"   24 A'   25 A'   26 A'                 
  0.212   0.222   0.237   0.246   0.259   0.292   0.298   0.324
 13 A"   27 A'   14 A"   28 A'   15 A"   29 A'   30 A'   16 A"                 
  0.348   0.350   0.376   0.388   0.400   0.402   0.411   0.412
 17 A"   31 A'   32 A'   33 A'   34 A'   18 A"   19 A"   35 A'                 
  0.419   0.441   0.525   0.526   0.539   0.560   0.575   0.587
 20 A"   36 A'   37 A'   21 A"   38 A'   39 A'   22 A"   40 A'                 
  0.594   0.614   0.636   0.684   0.685   0.708   0.725   0.726
 23 A"   41 A'   42 A'   43 A'   24 A"   44 A'   25 A"   45 A'                 
  0.741   0.769   0.772   0.803   0.805   0.817   0.851   0.886
 26 A"   27 A"   46 A'   28 A"   47 A'   48 A'   29 A"   49 A'                 
  0.932   0.947   1.002   1.003   1.039   1.112   1.139   1.196
 30 A"   50 A'   31 A"   51 A'   52 A'   53 A'   32 A"   54 A'                 
  1.222   1.470   1.504   1.517   1.637   1.666   1.684   1.717
 55 A'   56 A'   33 A"   57 A'   34 A"   35 A"   58 A'   36 A"                 
  1.720   1.722   1.725   1.753   1.787   1.844   1.936   1.961
 59 A'   60 A'   37 A"   38 A"   61 A'   62 A'   39 A"   63 A'                 
  2.015   2.048   2.049   2.095   2.096   2.156   2.202   2.217
 64 A'   40 A"   65 A'   66 A'   41 A"   67 A'   42 A"   68 A'                 
  2.260   2.302   2.307   2.319   2.406   2.904   2.983   3.022
 43 A"   69 A'   44 A"   70 A'   71 A'   72 A'   73 A'   45 A"                 
  3.194   3.247   3.308   3.320   3.321   3.337   3.342   3.385
 74 A'   46 A"   47 A"   75 A'   48 A"   76 A'   49 A"   77 A'                 
  3.391   3.410   3.503   3.626   3.672   3.674   3.750   3.950
 50 A"   78 A'   79 A'   80 A'   81 A'   51 A"   82 A'   52 A"                 
  3.950   3.996
 83 A'   53 A"                                                                 
 
 Beta MOs, Restricted
 -- Occupied --                  
-24.730 -24.730 -24.730 -19.179 -10.431  -1.300  -1.210  -1.210
  1 A'    1 A"    2 A'    3 A'    4 A'    5 A'    2 A"    6 A'                 
 -1.032  -0.709  -0.604  -0.594  -0.594  -0.568  -0.474  -0.474
  7 A'    8 A'    9 A'    3 A"   10 A'    4 A"    5 A"   11 A'                 
 -0.438  -0.438  -0.436  -0.416  -0.387  -0.351
  6 A"   12 A'   13 A'    7 A"   14 A'   15 A'                                 
 -- Virtual --                   
 -0.021   0.045   0.046   0.066   0.077   0.090   0.114   0.137
 16 A'    8 A"   17 A'   18 A'    9 A"   19 A'   20 A'   10 A"                 
  0.145   0.151   0.155   0.167   0.173   0.179   0.195   0.202
 21 A'   22 A'   11 A"   23 A'   12 A"   24 A'   25 A'   26 A'                 
  0.212   0.222   0.237   0.246   0.259   0.292   0.298   0.324
 13 A"   27 A'   14 A"   28 A'   15 A"   29 A'   30 A'   16 A"                 
  0.348   0.350   0.376   0.388   0.400   0.402   0.411   0.412
 17 A"   31 A'   32 A'   33 A'   34 A'   18 A"   19 A"   35 A'                 
  0.419   0.441   0.525   0.526   0.539   0.560   0.575   0.587
 20 A"   36 A'   37 A'   21 A"   38 A'   39 A'   22 A"   40 A'                 
  0.594   0.614   0.636   0.684   0.685   0.708   0.725   0.726
 23 A"   41 A'   42 A'   43 A'   24 A"   44 A'   25 A"   45 A'                 
  0.741   0.769   0.772   0.803   0.805   0.817   0.851   0.886
 26 A"   27 A"   46 A'   28 A"   47 A'   48 A'   29 A"   49 A'                 
  0.932   0.947   1.002   1.003   1.039   1.112   1.139   1.196
 30 A"   50 A'   31 A"   51 A'   52 A'   53 A'   32 A"   54 A'                 
  1.222   1.470   1.504   1.517   1.637   1.666   1.684   1.717
 55 A'   56 A'   33 A"   57 A'   34 A"   35 A"   58 A'   36 A"                 
  1.720   1.722   1.725   1.753   1.787   1.844   1.936   1.961
 59 A'   60 A'   37 A"   38 A"   61 A'   62 A'   39 A"   63 A'                 
  2.015   2.048   2.049   2.095   2.096   2.156   2.202   2.217
 64 A'   40 A"   65 A'   66 A'   41 A"   67 A'   42 A"   68 A'                 
  2.260   2.302   2.307   2.319   2.406   2.904   2.983   3.022
 43 A"   69 A'   44 A"   70 A'   71 A'   72 A'   73 A'   45 A"                 
  3.194   3.247   3.308   3.320   3.321   3.337   3.342   3.385
 74 A'   46 A"   47 A"   75 A'   48 A"   76 A'   49 A"   77 A'                 
  3.391   3.410   3.503   3.626   3.672   3.674   3.750   3.950
 50 A"   78 A'   79 A'   80 A'   81 A'   51 A"   82 A'   52 A"                 
  3.950   3.996
 83 A'   53 A"                                                                 
 --------------------------------------------------------------
 
          Ground-State Mulliken Net Atomic Charges

     Atom                 Charge (a.u.)
  ----------------------------------------
      1 O                    -0.203987
      2 H                     0.115766
      3 H                     0.115766
      4 H                    -0.805360
      5 C                     1.979809
      6 F                    -0.398128
      7 F                    -0.401933
      8 F                    -0.401933
  ----------------------------------------
  Sum of atomic charges =     0.000000

 -----------------------------------------------------------------
                    Cartesian Multipole Moments
 -----------------------------------------------------------------
    Charge (ESU x 10^10)
                 0.0000
    Dipole Moment (Debye)
         X       4.1694      Y      -0.0373      Z       0.0000
       Tot       4.1696
    Quadrupole Moments (Debye-Ang)
        XX     -16.3743     XY      -0.0103     YY     -30.5944
        XZ       0.0000     YZ       0.0000     ZZ     -27.2535
    Octopole Moments (Debye-Ang^2)
       XXX      49.1958    XXY       0.3232    XYY      -3.1812
       YYY       1.4409    XXZ       0.0000    XYZ       0.0000
       YYZ      -0.0000    XZZ       7.5513    YZZ      -1.3187
       ZZZ      -0.0000
    Hexadecapole Moments (Debye-Ang^3)
      XXXX    -233.3775   XXXY       0.3553   XXYY    -100.0536
      XYYY      -0.3605   YYYY     -95.9119   XXXZ       0.0000
      XXYZ      -0.0000   XYYZ       0.0000   YYYZ      -0.0000
      XXZZ     -65.1373   XYZZ       0.6735   YYZZ     -32.1453
      XZZZ       0.0000   YZZZ      -0.0000   ZZZZ     -95.0938
 -----------------------------------------------------------------
 Calculating analytic gradient of the SCF energy
 Gradient of SCF Energy
            1           2           3           4           5           6
    1  -0.0000446   0.0001318   0.0001318  -0.0003838   0.0004519  -0.0000998
    2   0.0000102   0.0000013   0.0000013  -0.0000442   0.0000159  -0.0000995
    3   0.0000000  -0.0002136   0.0002136  -0.0000000   0.0000000  -0.0000000
            7           8
    1  -0.0000937  -0.0000937
    2   0.0000575   0.0000575
    3   0.0000894  -0.0000894
 Max gradient component =       4.519E-04
 RMS gradient           =       1.502E-04
 Gradient time:  CPU 18.43 s  wall 1.15 s
 Geometry Optimization Parameters
   NAtoms,    NIC,     NZ,  NCons,   NDum,   NFix, NCnnct, MaxDiis
        8      38       0       0       0       0       0       0

 Cartesian Hessian Update
 Hessian updated using BFGS update


** GEOMETRY OPTIMIZATION IN DELOCALIZED INTERNAL COORDINATES **
   Searching for a Minimum

   Optimization Cycle:   3

                       Coordinates (Angstroms)
     ATOM                X               Y               Z
      1  O         2.7670114247   -0.0203235583    0.0000000000
      2  H         3.3475792030   -0.0110874401   -0.7697754288
      3  H         3.3475792030   -0.0110874401    0.7697754288
      4  H         0.5972515050   -0.0479948046    0.0000000000
      5  C        -0.4982902242   -0.0078033897    0.0000000000
      6  F        -1.0239084272   -1.2453714008    0.0000000000
      7  F        -0.9518300214    0.6382793906    1.0887936871
      8  F        -0.9518300214    0.6382793906   -1.0887936871
   Point Group: cs    Number of degrees of freedom:    11


   Energy is   -414.395737916

 Hessian updated using BFGS update

 11 Hessian modes will be used to form the next step
  Hessian Eigenvalues:
     0.002158    0.023483    0.093916    0.159240    0.182079    0.202954
     0.336120    0.376785    0.516291    0.559615    0.567509

 Minimum search - taking simple RFO step
 Searching for Lamda that Minimizes Along All modes
 Value Taken    Lamda =  -0.00000207
 Step Taken.  Stepsize is  0.008178

                             Maximum     Tolerance    Cnvgd?
         Gradient           0.000352      0.000050      NO
         Displacement       0.004989      0.000050      NO
         Energy change     -0.000006      0.000000      NO


 New Cartesian Coordinates Obtained by Inverse Iteration

 Displacement from previous Coordinates is:  0.010790
 Adding empirical dispersion correction 
 ----------------------------------------------------------------
 Doing -D3(BJ) with
 s6  =   1.00000
 s8  =   1.98890
 a1  =   0.39810
 a2  =   4.42110
 ----------------------------------------------------------------
 -D3 energy without 3body term =     -0.0042710392 hartrees
 ----------------------------------------------------------------
             Standard Nuclear Orientation (Angstroms)
    I     Atom           X                Y                Z
 ----------------------------------------------------------------
    1      O       2.7644727525    -0.0202060830     0.0000000000
    2      H       3.3449517024    -0.0111762893    -0.7695856657
    3      H       3.3449517024    -0.0111762893     0.7695856657
    4      H       0.5990074381    -0.0478771613     0.0000000000
    5      C      -0.4967445568    -0.0077874275     0.0000000000
    6      F      -1.0223041236    -1.2453217202     0.0000000000
    7      F      -0.9503861369     0.6382178591     1.0887303419
    8      F      -0.9503861369     0.6382178591    -1.0887303419
 ----------------------------------------------------------------
 Molecular Point Group                 Cs    NOp =  2
 Largest Abelian Subgroup              Cs    NOp =  2
 Nuclear Repulsion Energy =         188.91638212 hartrees
 There are       22 alpha and       22 beta electrons
 Applying Cartesian multipole field
    Component          Value
    ---------          -----
     (2,0,0)        1.00000E-11
     (0,2,0)        2.00000E-11
     (0,0,2)       -3.00000E-11
 Nucleus-field energy     =     0.0000000031 hartrees
 Requested basis set is def2-SVPD
 There are 56 shells and 136 basis functions
 A cutoff of  1.0D-14 yielded   1534 shell pairs
 There are      9082 function pairs (     10477 Cartesian)
 Smallest overlap matrix eigenvalue = 1.79E-04
 Read the previous MOs as SCF guess

 -----------------------------------------------------------------------
  General SCF calculation program by
  Eric Jon Sundstrom, Paul Horn, Yuezhi Mao, Dmitri Zuev, Alec White,
  David Stuck, Shaama M.S., Shane Yost, Joonho Lee, David Small,
  Daniel Levine, Susi Lehtola, Hugh Burton, Evgeny Epifanovsky,
  Bang C. Huynh
 -----------------------------------------------------------------------
 Exchange:     0.2000 Hartree-Fock + 0.0800 Slater + 0.7200 B88
 Correlation:  0.1900 VWN1RPA + 0.8100 LYP
 Using Euler-Maclaurin-Lebedev (75,302) quadrature formula
 Dispersion:   Grimme D3
 A restricted SCF calculation will be
 performed using DIIS
 SCF converges when DIIS error is below 1.0e-09
 ---------------------------------------
  Cycle       Energy         DIIS error
 ---------------------------------------
    1    -414.3957392975      2.19e-05  
    2    -414.3957396238      2.85e-06  
    3    -414.3957396087      4.16e-06  
    4    -414.3957396377      2.72e-07  
    5    -414.3957396378      6.38e-08  
    6    -414.3957396378      1.98e-08  
    7    -414.3957396378      7.79e-09  
    8    -414.3957396378      3.94e-10  Convergence criterion met
 ---------------------------------------
 SCF time:   CPU 38.59s  wall 3.00s 
 SCF   energy =  -414.39573964
 Total energy =  -414.39573964
 
 --------------------------------------------------------------
             Orbital Energies (a.u.) and Symmetries
 --------------------------------------------------------------
 
 Alpha MOs, Restricted
 -- Occupied --                  
-24.730 -24.730 -24.729 -19.179 -10.431  -1.299  -1.210  -1.210
  1 A'    1 A"    2 A'    3 A'    4 A'    5 A'    2 A"    6 A'                 
 -1.033  -0.709  -0.604  -0.594  -0.594  -0.569  -0.474  -0.474
  7 A'    8 A'    9 A'    3 A"   10 A'    4 A"    5 A"   11 A'                 
 -0.438  -0.438  -0.436  -0.416  -0.386  -0.351
  6 A"   12 A'   13 A'    7 A"   14 A'   15 A'                                 
 -- Virtual --                   
 -0.021   0.045   0.046   0.066   0.077   0.091   0.114   0.137
 16 A'    8 A"   17 A'   18 A'    9 A"   19 A'   20 A'   10 A"                 
  0.145   0.151   0.155   0.167   0.173   0.179   0.195   0.202
 21 A'   22 A'   11 A"   23 A'   12 A"   24 A'   25 A'   26 A'                 
  0.212   0.222   0.237   0.246   0.259   0.292   0.298   0.324
 13 A"   27 A'   14 A"   28 A'   15 A"   29 A'   30 A'   16 A"                 
  0.348   0.350   0.376   0.388   0.400   0.402   0.411   0.412
 17 A"   31 A'   32 A'   33 A'   34 A'   18 A"   19 A"   35 A'                 
  0.419   0.441   0.526   0.526   0.539   0.561   0.575   0.587
 20 A"   36 A'   37 A'   21 A"   38 A'   39 A'   22 A"   40 A'                 
  0.594   0.614   0.636   0.684   0.685   0.708   0.725   0.726
 23 A"   41 A'   42 A'   43 A'   24 A"   44 A'   25 A"   45 A'                 
  0.741   0.769   0.772   0.803   0.806   0.818   0.851   0.886
 26 A"   27 A"   46 A'   28 A"   47 A'   48 A'   29 A"   49 A'                 
  0.932   0.947   1.002   1.003   1.039   1.112   1.139   1.196
 30 A"   50 A'   31 A"   51 A'   52 A'   53 A'   32 A"   54 A'                 
  1.222   1.470   1.504   1.517   1.637   1.667   1.684   1.717
 55 A'   56 A'   33 A"   57 A'   34 A"   35 A"   58 A'   36 A"                 
  1.721   1.723   1.725   1.753   1.788   1.845   1.936   1.962
 59 A'   60 A'   37 A"   38 A"   61 A'   62 A'   39 A"   63 A'                 
  2.015   2.049   2.049   2.095   2.096   2.156   2.202   2.217
 64 A'   40 A"   65 A'   66 A'   41 A"   67 A'   42 A"   68 A'                 
  2.260   2.302   2.307   2.319   2.407   2.905   2.983   3.022
 43 A"   69 A'   44 A"   70 A'   71 A'   72 A'   73 A'   45 A"                 
  3.194   3.247   3.308   3.320   3.321   3.337   3.342   3.385
 74 A'   46 A"   47 A"   75 A'   48 A"   76 A'   49 A"   77 A'                 
  3.392   3.411   3.503   3.626   3.672   3.674   3.750   3.950
 50 A"   78 A'   79 A'   80 A'   81 A'   51 A"   82 A'   52 A"                 
  3.951   3.996
 83 A'   53 A"                                                                 
 
 Beta MOs, Restricted
 -- Occupied --                  
-24.730 -24.730 -24.729 -19.179 -10.431  -1.299  -1.210  -1.210
  1 A'    1 A"    2 A'    3 A'    4 A'    5 A'    2 A"    6 A'                 
 -1.033  -0.709  -0.604  -0.594  -0.594  -0.569  -0.474  -0.474
  7 A'    8 A'    9 A'    3 A"   10 A'    4 A"    5 A"   11 A'                 
 -0.438  -0.438  -0.436  -0.416  -0.386  -0.351
  6 A"   12 A'   13 A'    7 A"   14 A'   15 A'                                 
 -- Virtual --                   
 -0.021   0.045   0.046   0.066   0.077   0.091   0.114   0.137
 16 A'    8 A"   17 A'   18 A'    9 A"   19 A'   20 A'   10 A"                 
  0.145   0.151   0.155   0.167   0.173   0.179   0.195   0.202
 21 A'   22 A'   11 A"   23 A'   12 A"   24 A'   25 A'   26 A'                 
  0.212   0.222   0.237   0.246   0.259   0.292   0.298   0.324
 13 A"   27 A'   14 A"   28 A'   15 A"   29 A'   30 A'   16 A"                 
  0.348   0.350   0.376   0.388   0.400   0.402   0.411   0.412
 17 A"   31 A'   32 A'   33 A'   34 A'   18 A"   19 A"   35 A'                 
  0.419   0.441   0.526   0.526   0.539   0.561   0.575   0.587
 20 A"   36 A'   37 A'   21 A"   38 A'   39 A'   22 A"   40 A'                 
  0.594   0.614   0.636   0.684   0.685   0.708   0.725   0.726
 23 A"   41 A'   42 A'   43 A'   24 A"   44 A'   25 A"   45 A'                 
  0.741   0.769   0.772   0.803   0.806   0.818   0.851   0.886
 26 A"   27 A"   46 A'   28 A"   47 A'   48 A'   29 A"   49 A'                 
  0.932   0.947   1.002   1.003   1.039   1.112   1.139   1.196
 30 A"   50 A'   31 A"   51 A'   52 A'   53 A'   32 A"   54 A'                 
  1.222   1.470   1.504   1.517   1.637   1.667   1.684   1.717
 55 A'   56 A'   33 A"   57 A'   34 A"   35 A"   58 A'   36 A"                 
  1.721   1.723   1.725   1.753   1.788   1.845   1.936   1.962
 59 A'   60 A'   37 A"   38 A"   61 A'   62 A'   39 A"   63 A'                 
  2.015   2.049   2.049   2.095   2.096   2.156   2.202   2.217
 64 A'   40 A"   65 A'   66 A'   41 A"   67 A'   42 A"   68 A'                 
  2.260   2.302   2.307   2.319   2.407   2.905   2.983   3.022
 43 A"   69 A'   44 A"   70 A'   71 A'   72 A'   73 A'   45 A"                 
  3.194   3.247   3.308   3.320   3.321   3.337   3.342   3.385
 74 A'   46 A"   47 A"   75 A'   48 A"   76 A'   49 A"   77 A'                 
  3.392   3.411   3.503   3.626   3.672   3.674   3.750   3.950
 50 A"   78 A'   79 A'   80 A'   81 A'   51 A"   82 A'   52 A"                 
  3.951   3.996
 83 A'   53 A"                                                                 
 --------------------------------------------------------------
 
          Ground-State Mulliken Net Atomic Charges

     Atom                 Charge (a.u.)
  ----------------------------------------
      1 O                    -0.203240
      2 H                     0.115429
      3 H                     0.115429
      4 H                    -0.805247
      5 C                     1.979733
      6 F                    -0.398153
      7 F                    -0.401976
      8 F                    -0.401976
  ----------------------------------------
  Sum of atomic charges =     0.000000

 -----------------------------------------------------------------
                    Cartesian Multipole Moments
 -----------------------------------------------------------------
    Charge (ESU x 10^10)
                 0.0000
    Dipole Moment (Debye)
         X       4.1723      Y      -0.0378      Z      -0.0000
       Tot       4.1725
    Quadrupole Moments (Debye-Ang)
        XX     -16.3739     XY      -0.0126     YY     -30.5941
        XZ       0.0000     YZ      -0.0000     ZZ     -27.2544
    Octopole Moments (Debye-Ang^2)
       XXX      49.0807    XXY       0.3146    XYY      -3.1916
       YYY       1.4401    XXZ      -0.0000    XYZ       0.0000
       YYZ      -0.0000    XZZ       7.5283    YZZ      -1.3198
       ZZZ       0.0000
    Hexadecapole Moments (Debye-Ang^3)
      XXXX    -232.9253   XXXY       0.3259   XXYY     -99.8726
      XYYY      -0.3644   YYYY     -95.9039   XXXZ      -0.0000
      XXYZ      -0.0000   XYYZ      -0.0000   YYYZ      -0.0000
      XXZZ     -65.0262   XYZZ       0.6699   YYZZ     -32.1426
      XZZZ      -0.0000   YZZZ      -0.0000   ZZZZ     -95.0867
 -----------------------------------------------------------------
 Calculating analytic gradient of the SCF energy
 Gradient of SCF Energy
            1           2           3           4           5           6
    1   0.0001243   0.0000196   0.0000196  -0.0002161   0.0002871  -0.0000803
    2   0.0000144  -0.0000008  -0.0000008  -0.0000485   0.0000237  -0.0000291
    3   0.0000000  -0.0000292   0.0000292  -0.0000000   0.0000000   0.0000000
            7           8
    1  -0.0000771  -0.0000771
    2   0.0000206   0.0000206
    3   0.0000273  -0.0000273
 Max gradient component =       2.871E-04
 RMS gradient           =       8.459E-05
 Gradient time:  CPU 18.61 s  wall 1.16 s
 Geometry Optimization Parameters
   NAtoms,    NIC,     NZ,  NCons,   NDum,   NFix, NCnnct, MaxDiis
        8      38       0       0       0       0       0       0

 Cartesian Hessian Update
 Hessian updated using BFGS update


** GEOMETRY OPTIMIZATION IN DELOCALIZED INTERNAL COORDINATES **
   Searching for a Minimum

   Optimization Cycle:   4

                       Coordinates (Angstroms)
     ATOM                X               Y               Z
      1  O         2.7644727525   -0.0202060830    0.0000000000
      2  H         3.3449517024   -0.0111762893   -0.7695856657
      3  H         3.3449517024   -0.0111762893    0.7695856657
      4  H         0.5990074381   -0.0478771613    0.0000000000
      5  C        -0.4967445568   -0.0077874275    0.0000000000
      6  F        -1.0223041236   -1.2453217202    0.0000000000
      7  F        -0.9503861369    0.6382178591    1.0887303419
      8  F        -0.9503861369    0.6382178591   -1.0887303419
   Point Group: cs    Number of degrees of freedom:    11


   Energy is   -414.395739638

 Hessian updated using BFGS update

 11 Hessian modes will be used to form the next step
  Hessian Eigenvalues:
     0.002153    0.007207    0.093909    0.159968    0.182004    0.202714
     0.330819    0.359662    0.536753    0.567506    0.624261

 Minimum search - taking simple RFO step
 Searching for Lamda that Minimizes Along All modes
 Value Taken    Lamda =  -0.00000375
 Step Taken.  Stepsize is  0.022446

                             Maximum     Tolerance    Cnvgd?
         Gradient           0.000162      0.000050      NO
         Displacement       0.013769      0.000050      NO
         Energy change     -0.000002      0.000000      NO


 New Cartesian Coordinates Obtained by Inverse Iteration

 Displacement from previous Coordinates is:  0.030515
 Adding empirical dispersion correction 
 ----------------------------------------------------------------
 Doing -D3(BJ) with
 s6  =   1.00000
 s8  =   1.98890
 a1  =   0.39810
 a2  =   4.42110
 ----------------------------------------------------------------
 -D3 energy without 3body term =     -0.0042821960 hartrees
 ----------------------------------------------------------------
             Standard Nuclear Orientation (Angstroms)
    I     Atom           X                Y                Z
 ----------------------------------------------------------------
    1      O       2.7571890321    -0.0199145727     0.0000000000
    2      H       3.3375494136    -0.0114184915    -0.7695399419
    3      H       3.3375494136    -0.0114184915     0.7695399419
    4      H       0.6035550909    -0.0475101604     0.0000000000
    5      C      -0.4924207935    -0.0077351005     0.0000000000
    6      F      -1.0175817013    -1.2454192041     0.0000000000
    7      F      -0.9461389070     0.6381533843     1.0887488305
    8      F      -0.9461389070     0.6381533843    -1.0887488305
 ----------------------------------------------------------------
 Molecular Point Group                 Cs    NOp =  2
 Largest Abelian Subgroup              Cs    NOp =  2
 Nuclear Repulsion Energy =         189.05842740 hartrees
 There are       22 alpha and       22 beta electrons
 Applying Cartesian multipole field
    Component          Value
    ---------          -----
     (2,0,0)        1.00000E-11
     (0,2,0)        2.00000E-11
     (0,0,2)       -3.00000E-11
 Nucleus-field energy     =     0.0000000030 hartrees
 Requested basis set is def2-SVPD
 There are 56 shells and 136 basis functions
 A cutoff of  1.0D-14 yielded   1534 shell pairs
 There are      9082 function pairs (     10477 Cartesian)
 Smallest overlap matrix eigenvalue = 1.78E-04
 Read the previous MOs as SCF guess

 -----------------------------------------------------------------------
  General SCF calculation program by
  Eric Jon Sundstrom, Paul Horn, Yuezhi Mao, Dmitri Zuev, Alec White,
  David Stuck, Shaama M.S., Shane Yost, Joonho Lee, David Small,
  Daniel Levine, Susi Lehtola, Hugh Burton, Evgeny Epifanovsky,
  Bang C. Huynh
 -----------------------------------------------------------------------
 Exchange:     0.2000 Hartree-Fock + 0.0800 Slater + 0.7200 B88
 Correlation:  0.1900 VWN1RPA + 0.8100 LYP
 Using Euler-Maclaurin-Lebedev (75,302) quadrature formula
 Dispersion:   Grimme D3
 A restricted SCF calculation will be
 performed using DIIS
 SCF converges when DIIS error is below 1.0e-09
 ---------------------------------------
  Cycle       Energy         DIIS error
 ---------------------------------------
    1    -414.3957392845      5.67e-05  
    2    -414.3957415192      4.87e-06  
    3    -414.3957414823      6.86e-06  
    4    -414.3957415609      6.05e-07  
    5    -414.3957415615      1.52e-07  
    6    -414.3957415615      4.30e-08  
    7    -414.3957415615      1.98e-08  
    8    -414.3957415615      1.69e-09  
    9    -414.3957415615      3.79e-10  Convergence criterion met
 ---------------------------------------
 SCF time:   CPU 43.24s  wall 3.00s 
 SCF   energy =  -414.39574156
 Total energy =  -414.39574156
 
 --------------------------------------------------------------
             Orbital Energies (a.u.) and Symmetries
 --------------------------------------------------------------
 
 Alpha MOs, Restricted
 -- Occupied --                  
-24.730 -24.729 -24.729 -19.180 -10.431  -1.299  -1.210  -1.210
  1 A'    1 A"    2 A'    3 A'    4 A'    5 A'    2 A"    6 A'                 
 -1.033  -0.709  -0.604  -0.594  -0.594  -0.569  -0.474  -0.474
  7 A'    8 A'    9 A'    3 A"   10 A'    4 A"    5 A"   11 A'                 
 -0.438  -0.438  -0.436  -0.416  -0.386  -0.352
  6 A"   12 A'   13 A'    7 A"   14 A'   15 A'                                 
 -- Virtual --                   
 -0.021   0.045   0.046   0.066   0.077   0.091   0.114   0.138
 16 A'    8 A"   17 A'   18 A'    9 A"   19 A'   20 A'   10 A"                 
  0.145   0.151   0.155   0.167   0.173   0.179   0.195   0.203
 21 A'   22 A'   11 A"   23 A'   12 A"   24 A'   25 A'   26 A'                 
  0.212   0.222   0.238   0.246   0.259   0.292   0.298   0.324
 13 A"   27 A'   14 A"   28 A'   15 A"   29 A'   30 A'   16 A"                 
  0.348   0.350   0.376   0.388   0.400   0.402   0.411   0.413
 17 A"   31 A'   32 A'   33 A'   34 A'   18 A"   19 A"   35 A'                 
  0.419   0.441   0.526   0.527   0.540   0.561   0.575   0.587
 20 A"   36 A'   37 A'   21 A"   38 A'   39 A'   22 A"   40 A'                 
  0.594   0.614   0.637   0.684   0.685   0.709   0.726   0.727
 23 A"   41 A'   42 A'   43 A'   24 A"   44 A'   25 A"   45 A'                 
  0.741   0.770   0.772   0.804   0.808   0.818   0.851   0.887
 26 A"   27 A"   46 A'   28 A"   47 A'   48 A'   29 A"   49 A'                 
  0.933   0.947   1.002   1.003   1.039   1.112   1.140   1.198
 30 A"   50 A'   31 A"   51 A'   52 A'   53 A'   32 A"   54 A'                 
  1.224   1.468   1.504   1.517   1.637   1.669   1.685   1.717
 55 A'   56 A'   33 A"   57 A'   34 A"   35 A"   58 A'   36 A"                 
  1.721   1.724   1.725   1.754   1.788   1.844   1.936   1.964
 59 A'   60 A'   37 A"   38 A"   61 A'   62 A'   39 A"   63 A'                 
  2.016   2.049   2.049   2.096   2.096   2.156   2.203   2.217
 64 A'   40 A"   65 A'   66 A'   41 A"   67 A'   42 A"   68 A'                 
  2.260   2.302   2.308   2.319   2.407   2.906   2.983   3.022
 43 A"   69 A'   44 A"   70 A'   71 A'   72 A'   73 A'   45 A"                 
  3.194   3.247   3.308   3.320   3.321   3.337   3.343   3.385
 74 A'   46 A"   47 A"   75 A'   48 A"   76 A'   49 A"   77 A'                 
  3.392   3.411   3.503   3.627   3.673   3.674   3.750   3.950
 50 A"   78 A'   79 A'   80 A'   81 A'   51 A"   82 A'   52 A"                 
  3.951   3.996
 83 A'   53 A"                                                                 
 
 Beta MOs, Restricted
 -- Occupied --                  
-24.730 -24.729 -24.729 -19.180 -10.431  -1.299  -1.210  -1.210
  1 A'    1 A"    2 A'    3 A'    4 A'    5 A'    2 A"    6 A'                 
 -1.033  -0.709  -0.604  -0.594  -0.594  -0.569  -0.474  -0.474
  7 A'    8 A'    9 A'    3 A"   10 A'    4 A"    5 A"   11 A'                 
 -0.438  -0.438  -0.436  -0.416  -0.386  -0.352
  6 A"   12 A'   13 A'    7 A"   14 A'   15 A'                                 
 -- Virtual --                   
 -0.021   0.045   0.046   0.066   0.077   0.091   0.114   0.138
 16 A'    8 A"   17 A'   18 A'    9 A"   19 A'   20 A'   10 A"                 
  0.145   0.151   0.155   0.167   0.173   0.179   0.195   0.203
 21 A'   22 A'   11 A"   23 A'   12 A"   24 A'   25 A'   26 A'                 
  0.212   0.222   0.238   0.246   0.259   0.292   0.298   0.324
 13 A"   27 A'   14 A"   28 A'   15 A"   29 A'   30 A'   16 A"                 
  0.348   0.350   0.376   0.388   0.400   0.402   0.411   0.413
 17 A"   31 A'   32 A'   33 A'   34 A'   18 A"   19 A"   35 A'                 
  0.419   0.441   0.526   0.527   0.540   0.561   0.575   0.587
 20 A"   36 A'   37 A'   21 A"   38 A'   39 A'   22 A"   40 A'                 
  0.594   0.614   0.637   0.684   0.685   0.709   0.726   0.727
 23 A"   41 A'   42 A'   43 A'   24 A"   44 A'   25 A"   45 A'                 
  0.741   0.770   0.772   0.804   0.808   0.818   0.851   0.887
 26 A"   27 A"   46 A'   28 A"   47 A'   48 A'   29 A"   49 A'                 
  0.933   0.947   1.002   1.003   1.039   1.112   1.140   1.198
 30 A"   50 A'   31 A"   51 A'   52 A'   53 A'   32 A"   54 A'                 
  1.224   1.468   1.504   1.517   1.637   1.669   1.685   1.717
 55 A'   56 A'   33 A"   57 A'   34 A"   35 A"   58 A'   36 A"                 
  1.721   1.724   1.725   1.754   1.788   1.844   1.936   1.964
 59 A'   60 A'   37 A"   38 A"   61 A'   62 A'   39 A"   63 A'                 
  2.016   2.049   2.049   2.096   2.096   2.156   2.203   2.217
 64 A'   40 A"   65 A'   66 A'   41 A"   67 A'   42 A"   68 A'                 
  2.260   2.302   2.308   2.319   2.407   2.906   2.983   3.022
 43 A"   69 A'   44 A"   70 A'   71 A'   72 A'   73 A'   45 A"                 
  3.194   3.247   3.308   3.320   3.321   3.337   3.343   3.385
 74 A'   46 A"   47 A"   75 A'   48 A"   76 A'   49 A"   77 A'                 
  3.392   3.411   3.503   3.627   3.673   3.674   3.750   3.950
 50 A"   78 A'   79 A'   80 A'   81 A'   51 A"   82 A'   52 A"                 
  3.951   3.996
 83 A'   53 A"                                                                 
 --------------------------------------------------------------
 
          Ground-State Mulliken Net Atomic Charges

     Atom                 Charge (a.u.)
  ----------------------------------------
      1 O                    -0.202056
      2 H                     0.114971
      3 H                     0.114971
      4 H                    -0.806628
      5 C                     1.981564
      6 F                    -0.398354
      7 F                    -0.402235
      8 F                    -0.402235
  ----------------------------------------
  Sum of atomic charges =     0.000000

 -----------------------------------------------------------------
                    Cartesian Multipole Moments
 -----------------------------------------------------------------
    Charge (ESU x 10^10)
                -0.0000
    Dipole Moment (Debye)
         X       4.1795      Y      -0.0390      Z      -0.0000
       Tot       4.1797
    Quadrupole Moments (Debye-Ang)
        XX     -16.3743     XY      -0.0185     YY     -30.5950
        XZ       0.0000     YZ      -0.0000     ZZ     -27.2556
    Octopole Moments (Debye-Ang^2)
       XXX      48.7359    XXY       0.2921    XYY      -3.2256
       YYY       1.4388    XXZ      -0.0000    XYZ       0.0000
       YYZ       0.0000    XZZ       7.4697    YZZ      -1.3229
       ZZZ      -0.0000
    Hexadecapole Moments (Debye-Ang^3)
      XXXX    -231.6919   XXXY       0.2503   XXYY     -99.3727
      XYYY      -0.3735   YYYY     -95.9099   XXXZ       0.0000
      XXYZ      -0.0000   XYYZ       0.0000   YYYZ       0.0000
      XXZZ     -64.6876   XYZZ       0.6607   YYZZ     -32.1454
      XZZZ       0.0000   YZZZ       0.0000   ZZZZ     -95.0953
 -----------------------------------------------------------------
 Calculating analytic gradient of the SCF energy
 Gradient of SCF Energy
            1           2           3           4           5           6
    1   0.0001079  -0.0000522  -0.0000522   0.0000166   0.0000104  -0.0000115
    2   0.0000180  -0.0000028  -0.0000028  -0.0000522   0.0000376   0.0000133
    3   0.0000000   0.0000666  -0.0000666   0.0000000  -0.0000000  -0.0000000
            7           8
    1  -0.0000096  -0.0000096
    2  -0.0000055  -0.0000055
    3  -0.0000128   0.0000128
 Max gradient component =       1.079E-04
 RMS gradient           =       3.633E-05
 Gradient time:  CPU 18.45 s  wall 1.15 s
 Geometry Optimization Parameters
   NAtoms,    NIC,     NZ,  NCons,   NDum,   NFix, NCnnct, MaxDiis
        8      38       0       0       0       0       0       0

 Cartesian Hessian Update
 Hessian updated using BFGS update


** GEOMETRY OPTIMIZATION IN DELOCALIZED INTERNAL COORDINATES **
   Searching for a Minimum

   Optimization Cycle:   5

                       Coordinates (Angstroms)
     ATOM                X               Y               Z
      1  O         2.7571890321   -0.0199145727    0.0000000000
      2  H         3.3375494136   -0.0114184915   -0.7695399419
      3  H         3.3375494136   -0.0114184915    0.7695399419
      4  H         0.6035550909   -0.0475101604    0.0000000000
      5  C        -0.4924207935   -0.0077351005    0.0000000000
      6  F        -1.0175817013   -1.2454192041    0.0000000000
      7  F        -0.9461389070    0.6381533843    1.0887488305
      8  F        -0.9461389070    0.6381533843   -1.0887488305
   Point Group: cs    Number of degrees of freedom:    11


   Energy is   -414.395741562

 Hessian updated using BFGS update

 11 Hessian modes will be used to form the next step
  Hessian Eigenvalues:
     0.002154    0.007057    0.093906    0.159950    0.181963    0.202550
     0.330472    0.357741    0.537075    0.567505    0.631225

 Minimum search - taking simple RFO step
 Searching for Lamda that Minimizes Along All modes
 Value Taken    Lamda =  -0.00000003
 Step Taken.  Stepsize is  0.000615

                             Maximum     Tolerance    Cnvgd?
         Gradient           0.000091      0.000050      NO
         Displacement       0.000410      0.000050      NO
         Energy change     -0.000002      0.000000      NO


 New Cartesian Coordinates Obtained by Inverse Iteration

 Displacement from previous Coordinates is:  0.000818
 Adding empirical dispersion correction 
 ----------------------------------------------------------------
 Doing -D3(BJ) with
 s6  =   1.00000
 s8  =   1.98890
 a1  =   0.39810
 a2  =   4.42110
 ----------------------------------------------------------------
 -D3 energy without 3body term =     -0.0042824716 hartrees
 ----------------------------------------------------------------
             Standard Nuclear Orientation (Angstroms)
    I     Atom           X                Y                Z
 ----------------------------------------------------------------
    1      O       2.7569705701    -0.0199426789     0.0000000000
    2      H       3.3373784787    -0.0114265248    -0.7695901450
    3      H       3.3373784787    -0.0114265248     0.7695901450
    4      H       0.6036234312    -0.0474552255     0.0000000000
    5      C      -0.4923318296    -0.0077234711     0.0000000000
    6      F      -1.0174003028    -1.2454519173     0.0000000000
    7      F      -0.9460280925     0.6381585451     1.0887714014
    8      F      -0.9460280925     0.6381585451    -1.0887714014
 ----------------------------------------------------------------
 Molecular Point Group                 Cs    NOp =  2
 Largest Abelian Subgroup              Cs    NOp =  2
 Nuclear Repulsion Energy =         189.06040355 hartrees
 There are       22 alpha and       22 beta electrons
 Applying Cartesian multipole field
    Component          Value
    ---------          -----
     (2,0,0)        1.00000E-11
     (0,2,0)        2.00000E-11
     (0,0,2)       -3.00000E-11
 Nucleus-field energy     =     0.0000000030 hartrees
 Requested basis set is def2-SVPD
 There are 56 shells and 136 basis functions
 A cutoff of  1.0D-14 yielded   1534 shell pairs
 There are      9082 function pairs (     10477 Cartesian)
 Smallest overlap matrix eigenvalue = 1.78E-04
 Read the previous MOs as SCF guess

 -----------------------------------------------------------------------
  General SCF calculation program by
  Eric Jon Sundstrom, Paul Horn, Yuezhi Mao, Dmitri Zuev, Alec White,
  David Stuck, Shaama M.S., Shane Yost, Joonho Lee, David Small,
  Daniel Levine, Susi Lehtola, Hugh Burton, Evgeny Epifanovsky,
  Bang C. Huynh
 -----------------------------------------------------------------------
 Exchange:     0.2000 Hartree-Fock + 0.0800 Slater + 0.7200 B88
 Correlation:  0.1900 VWN1RPA + 0.8100 LYP
 Using Euler-Maclaurin-Lebedev (75,302) quadrature formula
 Dispersion:   Grimme D3
 A restricted SCF calculation will be
 performed using DIIS
 SCF converges when DIIS error is below 1.0e-09
 ---------------------------------------
  Cycle       Energy         DIIS error
 ---------------------------------------
    1    -414.3957415760      2.35e-06  
    2    -414.3957415836      4.61e-07  
    3    -414.3957415835      5.74e-07  
    4    -414.3957415840      7.26e-08  
    5    -414.3957415840      9.36e-09  
    6    -414.3957415840      4.68e-09  
    7    -414.3957415840      1.35e-09  
    8    -414.3957415840      2.28e-10  Convergence criterion met
 ---------------------------------------
 SCF time:   CPU 38.22s  wall 2.00s 
 SCF   energy =  -414.39574158
 Total energy =  -414.39574158
 
 --------------------------------------------------------------
             Orbital Energies (a.u.) and Symmetries
 --------------------------------------------------------------
 
 Alpha MOs, Restricted
 -- Occupied --                  
-24.730 -24.729 -24.729 -19.180 -10.431  -1.299  -1.210  -1.210
  1 A'    1 A"    2 A'    3 A'    4 A'    5 A'    2 A"    6 A'                 
 -1.033  -0.709  -0.604  -0.594  -0.594  -0.569  -0.474  -0.474
  7 A'    8 A'    9 A'    3 A"   10 A'    4 A"    5 A"   11 A'                 
 -0.438  -0.438  -0.436  -0.416  -0.386  -0.352
  6 A"   12 A'   13 A'    7 A"   14 A'   15 A'                                 
 -- Virtual --                   
 -0.021   0.045   0.046   0.066   0.077   0.091   0.114   0.138
 16 A'    8 A"   17 A'   18 A'    9 A"   19 A'   20 A'   10 A"                 
  0.145   0.151   0.155   0.167   0.173   0.179   0.195   0.203
 21 A'   22 A'   11 A"   23 A'   12 A"   24 A'   25 A'   26 A'                 
  0.212   0.222   0.238   0.246   0.259   0.292   0.298   0.324
 13 A"   27 A'   14 A"   28 A'   15 A"   29 A'   30 A'   16 A"                 
  0.348   0.350   0.376   0.388   0.400   0.402   0.411   0.413
 17 A"   31 A'   32 A'   33 A'   34 A'   18 A"   19 A"   35 A'                 
  0.419   0.441   0.526   0.527   0.540   0.561   0.575   0.587
 20 A"   36 A'   37 A'   21 A"   38 A'   39 A'   22 A"   40 A'                 
  0.594   0.614   0.637   0.684   0.685   0.709   0.726   0.727
 23 A"   41 A'   42 A'   43 A'   24 A"   44 A'   25 A"   45 A'                 
  0.741   0.770   0.772   0.804   0.808   0.818   0.851   0.887
 26 A"   27 A"   46 A'   28 A"   47 A'   48 A'   29 A"   49 A'                 
  0.933   0.947   1.002   1.003   1.039   1.112   1.140   1.198
 30 A"   50 A'   31 A"   51 A'   52 A'   53 A'   32 A"   54 A'                 
  1.224   1.468   1.504   1.517   1.637   1.669   1.685   1.717
 55 A'   56 A'   33 A"   57 A'   34 A"   35 A"   58 A'   36 A"                 
  1.721   1.724   1.725   1.754   1.788   1.844   1.936   1.964
 59 A'   60 A'   37 A"   38 A"   61 A'   62 A'   39 A"   63 A'                 
  2.016   2.049   2.049   2.096   2.096   2.157   2.203   2.217
 64 A'   40 A"   65 A'   66 A'   41 A"   67 A'   42 A"   68 A'                 
  2.260   2.302   2.308   2.319   2.407   2.906   2.983   3.022
 43 A"   69 A'   44 A"   70 A'   71 A'   72 A'   73 A'   45 A"                 
  3.194   3.247   3.308   3.320   3.321   3.337   3.343   3.385
 74 A'   46 A"   47 A"   75 A'   48 A"   76 A'   49 A"   77 A'                 
  3.392   3.411   3.503   3.627   3.672   3.674   3.750   3.950
 50 A"   78 A'   79 A'   80 A'   81 A'   51 A"   82 A'   52 A"                 
  3.951   3.996
 83 A'   53 A"                                                                 
 
 Beta MOs, Restricted
 -- Occupied --                  
-24.730 -24.729 -24.729 -19.180 -10.431  -1.299  -1.210  -1.210
  1 A'    1 A"    2 A'    3 A'    4 A'    5 A'    2 A"    6 A'                 
 -1.033  -0.709  -0.604  -0.594  -0.594  -0.569  -0.474  -0.474
  7 A'    8 A'    9 A'    3 A"   10 A'    4 A"    5 A"   11 A'                 
 -0.438  -0.438  -0.436  -0.416  -0.386  -0.352
  6 A"   12 A'   13 A'    7 A"   14 A'   15 A'                                 
 -- Virtual --                   
[...]
     7    2.111447420220288e-02   8.745625286415027e-04  -1.322582837145821e-02
     8    2.111447420126288e-02   8.745625502616765e-04   1.322582835876811e-02

Order 1, Length 24
    Atom      X          Y          Z
     1    0.000000000000000e+00   0.000000000000000e+00  -7.357334146445376e-04
     2    4.287999027070112e-04   1.116294390732677e-05   6.225840910258423e-05
     3   -4.287999027070112e-04  -1.116294390732677e-05   6.225840910258423e-05
     4    0.000000000000000e+00   0.000000000000000e+00   6.583316885811631e-02
     5    0.000000000000000e+00   0.000000000000000e+00  -4.847836810756440e-02
     6    0.000000000000000e+00   0.000000000000000e+00   9.360949692165568e-03
     7    3.556948209095509e-02  -1.432594187932816e-02  -1.305226776041441e-02
     8   -3.556948209095509e-02   1.432594187932816e-02  -1.305226776041441e-02


     5 Order 1, Length 24
    Atom      X          Y          Z
     1    3.410051357333314e-03  -2.878160855812842e-05   0.000000000000000e+00
     2    3.191209105281221e-04   2.257030279015946e-05   2.315784185364559e-04
     3    3.191209115268801e-04   2.257030283789422e-05  -2.315784201814691e-04
     4   -3.379856468797729e-01   1.097614833040706e-02   0.000000000000000e+00
     5    7.532319058414669e-01  -1.086025685031405e-02   0.000000000000000e+00
     6   -1.469233662286598e-01  -9.858342373367956e-02   0.000000000000000e+00
     7   -1.361856501879692e-01   4.922557034981422e-02   8.050294451362007e-02
     8   -1.361856501812717e-01   4.922557034017915e-02  -8.050294449975495e-02

Order 1, Length 24
    Atom      X          Y          Z
     1   -1.219707600029958e-04  -1.764349813336343e-03   0.000000000000000e+00
     2   -1.056234702296604e-04   6.342414099505453e-04  -6.415882016961658e-05
     3   -1.056234655883731e-04   6.342414103048841e-04   6.415882357714397e-05
     4    1.132612539887934e-02  -4.869526223610696e-02   0.000000000000000e+00
     5   -1.086025685031405e-02   4.771806381414149e-01   0.000000000000000e+00
     6   -8.185736399292705e-02  -2.068121539768136e-01   0.000000000000000e+00
     7    4.086236237500893e-02  -1.105886964541400e-01  -6.440258873882169e-02
     8    4.086236238828654e-02  -1.105886964630701e-01   6.440258875245181e-02

Order 1, Length 24
    Atom      X          Y          Z
     1    0.000000000000000e+00   0.000000000000000e+00  -1.692668818560294e-03
     2    6.224371177645724e-04  -1.109746391647724e-04   5.447161630764454e-04
     3   -6.224371177645724e-04   1.109746391647724e-04   5.447161630764454e-04
     4    0.000000000000000e+00   0.000000000000000e+00  -4.847836810756440e-02
     5    0.000000000000000e+00   0.000000000000000e+00   4.766584668693911e-01
     6    0.000000000000000e+00   0.000000000000000e+00  -7.174457314571028e-02
     7    6.613519922362816e-02  -6.390477901838061e-02  -1.779161552179670e-01
     8   -6.613519922362816e-02   6.390477901838061e-02  -1.779161552179670e-01


     6 Order 1, Length 24
    Atom      X          Y          Z
     1   -9.542587310707278e-04   3.301778542050376e-04   0.000000000000000e+00
     2   -8.551773750849916e-05  -6.717190899517870e-05  -7.877364561782300e-05
     3   -8.551773133969956e-05  -6.717190942662748e-05   7.877364820284378e-05
     4   -7.244182660643789e-03  -4.206999087315081e-02   0.000000000000000e+00
     5   -1.469233662286598e-01  -8.185736399292705e-02   0.000000000000000e+00
     6    1.116013393815453e-01   1.144623909700926e-01   0.000000000000000e+00
     7    2.184577215377182e-02   4.634566319560706e-03  -5.894348652458942e-03
     8    2.184577214542926e-02   4.634566323555737e-03   5.894348617443661e-03

Order 1, Length 24
    Atom      X          Y          Z
     1   -7.118938743292257e-04   9.478841037603057e-04   0.000000000000000e+00
     2   -7.327594867027786e-05  -2.901107363352311e-04  -3.018936768084612e-05
     3   -7.327595313531376e-05  -2.901107363444108e-04   3.018936656458714e-05
     4   -8.532455935180948e-03  -1.845805996848586e-02   0.000000000000000e+00
     5   -9.858342373367956e-02  -2.068121539768136e-01   0.000000000000000e+00
     6    1.144623909700926e-01   3.405799561888382e-01   0.000000000000000e+00
     7   -3.244012982850844e-03  -5.783870618897718e-02  -3.997892443883294e-02
     8   -3.244012977563301e-03  -5.783870617017703e-02   3.997892443295790e-02

Order 1, Length 24
    Atom      X          Y          Z
     1    0.000000000000000e+00   0.000000000000000e+00   2.236736584137714e-04
     2   -7.854493818664493e-05  -1.288178646702566e-05  -7.740460470511806e-05
     3    7.854493818664493e-05   1.288178646702566e-05  -7.740460470511806e-05
     4    0.000000000000000e+00   0.000000000000000e+00   9.360949692165568e-03
     5    0.000000000000000e+00   0.000000000000000e+00  -7.174457314571028e-02
     6    0.000000000000000e+00   0.000000000000000e+00   7.599793551338981e-02
     7   -1.075021796819016e-02  -4.752786101660084e-02  -6.841584067899083e-03
     8    1.075021796819016e-02   4.752786101660084e-02  -6.841584067899083e-03


     7 Order 1, Length 24
    Atom      X          Y          Z
     1   -8.554521972221148e-04  -1.492934490203481e-04  -3.766666891091943e-04
     2    3.741406246441236e-05   2.381457677606181e-05  -4.695401789437131e-06
     3   -1.898050314834820e-04   1.470285628942888e-05   1.381225773196949e-04
     4   -4.430636099802357e-03   2.111447420220288e-02   3.556948209095509e-02
     5   -1.361856501879692e-01   4.086236237500893e-02   6.613519922362816e-02
     6    2.184577215377182e-02  -3.244012982850844e-03  -1.075021796819016e-02
     7    9.870636883464193e-02  -5.089765496684994e-02  -8.631648661934377e-02
     8    2.107202774064232e-02  -7.724380681762361e-03  -4.394726429751675e-03

Order 1, Length 24
    Atom      X          Y          Z
     1    3.688311459680147e-04   4.506253913536057e-04   4.095614073948722e-04
     2   -5.750257299866641e-05  -1.076705300704676e-04  -5.338820459772493e-05
     3    2.151764522321043e-04  -1.899447462562884e-04  -1.363516250533967e-04
     4    4.235369566802973e-03   8.745625286415027e-04  -1.432594187932816e-02
     5    4.922557034981422e-02  -1.105886964541400e-01  -6.390477901838061e-02
     6    4.634566319560706e-03  -5.783870618897718e-02  -4.752786101660084e-02
     7   -5.089765496684994e-02   1.482327250648252e-01   1.214951384729456e-01
     8   -7.724380681762361e-03   1.916711913847930e-02   4.043623010779884e-03

Order 1, Length 24
    Atom      X          Y          Z
     1    5.903717872406779e-04   3.266247046264039e-04   8.956267705939403e-04
     2   -1.811000347705024e-04  -3.094788511816420e-05  -1.559227277563419e-04
     3    4.369549229369621e-04  -1.398342986990818e-04  -3.277472133921380e-04
     4    6.466899136625402e-03  -1.322582837145821e-02  -1.305226776041441e-02
     5    8.050294451362007e-02  -6.440258873882169e-02  -1.779161552179670e-01
     6   -5.894348652458942e-03  -3.997892443883294e-02  -6.841584067899083e-03
     7   -8.631648661934377e-02   1.214951384729456e-01   2.804227250493827e-01
     8    4.394726429751675e-03  -4.043623010779884e-03  -8.302467188864514e-02


     8 Order 1, Length 24
    Atom      X          Y          Z
     1   -8.554521969871129e-04  -1.492934554829001e-04   3.766666891091943e-04
     2   -1.898050314834820e-04   1.470285628942888e-05  -1.381225773196949e-04
     3    3.741406246441236e-05   2.381457677606181e-05   4.695401789437131e-06
     4   -4.430636093692307e-03   2.111447420126288e-02  -3.556948209095509e-02
     5   -1.361856501812717e-01   4.086236238828654e-02  -6.613519922362816e-02
     6    2.184577214542926e-02  -3.244012977563301e-03   1.075021796819016e-02
     7    2.107202774064232e-02  -7.724380681762361e-03   4.394726429751675e-03
     8    9.870636883464193e-02  -5.089765496684994e-02   8.631648661934377e-02

Order 1, Length 24
    Atom      X          Y          Z
     1    3.688311356279316e-04   4.506253920586113e-04  -4.095614073948722e-04
     2    2.151764522321043e-04  -1.899447462562884e-04   1.363516250533967e-04
     3   -5.750257299866641e-05  -1.076705300704676e-04   5.338820459772493e-05
     4    4.235369515572561e-03   8.745625502616765e-04   1.432594187932816e-02
     5    4.922557034017915e-02  -1.105886964630701e-01   6.390477901838061e-02
     6    4.634566323555737e-03  -5.783870617017703e-02   4.752786101660084e-02
     7   -7.724380681762361e-03   1.916711913847930e-02  -4.043623010779884e-03
     8   -5.089765496684994e-02   1.482327250648252e-01  -1.214951384729456e-01

Order 1, Length 24
    Atom      X          Y          Z
     1   -5.903717703205419e-04  -3.266247243665626e-04   8.956267705939403e-04
     2   -4.369549229369621e-04   1.398342986990818e-04  -3.277472133921380e-04
     3    1.811000347705024e-04   3.094788511816420e-05  -1.559227277563419e-04
     4   -6.466899121585282e-03   1.322582835876811e-02  -1.305226776041441e-02
     5   -8.050294449975495e-02   6.440258875245181e-02  -1.779161552179670e-01
     6    5.894348617443661e-03   3.997892443295790e-02  -6.841584067899083e-03
     7   -4.394726429751675e-03   4.043623010779884e-03  -8.302467188864514e-02
     8    8.631648661934377e-02  -1.214951384729456e-01   2.804227250493827e-01





 ###########################################
 # Finishing finite difference calculation #
 ###########################################

 Requested basis set is def2-SVPD
 There are 56 shells and 136 basis functions
 **********************************************************************
 **                                                                  **
 **                       VIBRATIONAL ANALYSIS                       **
 **                       --------------------                       **
 **                                                                  **
 **        VIBRATIONAL FREQUENCIES (CM**-1) AND NORMAL MODES         **
 **     FORCE CONSTANTS (mDYN/ANGSTROM) AND REDUCED MASSES (AMU)     **
 **                  INFRARED INTENSITIES (KM/MOL)                   **
 **                                                                  **
 **********************************************************************
 

 Mode:                 1                      2                      3
 Frequency:       -14.18                   8.98                  44.38
 Force Cnst:      0.0006                 0.0003                 0.0012
 Red. Mass:       5.2582                 5.8499                 1.0216
 IR Active:          YES                    YES                    YES
 IR Intens:        0.656                  1.624                  0.695
 Raman Active:       YES                    YES                    YES
               X      Y      Z        X      Y      Z        X      Y      Z
 O         -0.000  0.000  0.162    0.020 -0.173  0.000   -0.000  0.000  0.007
 H          0.319  0.016  0.404    0.032 -0.481 -0.000   -0.022 -0.706 -0.031
 H         -0.319 -0.016  0.404    0.032 -0.481  0.000    0.022  0.706 -0.031
 H         -0.000 -0.000 -0.468    0.012  0.500 -0.000    0.000 -0.000 -0.005
 C          0.000 -0.000 -0.156   -0.001  0.167 -0.000    0.000 -0.000 -0.002
 F         -0.000 -0.000 -0.012    0.380  0.007 -0.000   -0.000 -0.000 -0.016
 F          0.315 -0.006 -0.022   -0.200  0.029 -0.000    0.003 -0.013  0.007
 F         -0.315  0.006 -0.022   -0.200  0.029  0.000   -0.003  0.013  0.007
 TransDip  -0.000  0.000  0.026    0.005 -0.040  0.000   -0.000  0.000 -0.027

 Mode:                 4                      5                      6
 Frequency:        80.14                 118.78                 139.35
 Force Cnst:      0.0258                 0.0103                 0.0134
 Red. Mass:       6.8110                 1.2415                 1.1743
 IR Active:          YES                    YES                    YES
 IR Intens:        0.006                239.895                 78.939
 Raman Active:       YES                    YES                    YES
               X      Y      Z        X      Y      Z        X      Y      Z
 O          0.548  0.005  0.000    0.003 -0.118  0.000    0.000 -0.000 -0.090
 H          0.548  0.020  0.000   -0.029  0.701  0.000    0.599 -0.045  0.364
 H          0.548  0.020 -0.000   -0.029  0.701 -0.000   -0.599  0.045  0.364
 H         -0.133 -0.023 -0.000    0.001  0.034 -0.000   -0.000 -0.000  0.041
 C         -0.141 -0.007 -0.000    0.000  0.013 -0.000   -0.000 -0.000  0.018
 F         -0.160  0.002 -0.000    0.027  0.004 -0.000   -0.000 -0.000  0.007
 F         -0.132 -0.001 -0.001   -0.014  0.006 -0.000   -0.032 -0.000  0.008
 F         -0.132 -0.001  0.001   -0.014  0.006  0.000    0.032  0.000  0.008
 TransDip  -0.001  0.002 -0.000   -0.019  0.496 -0.000   -0.000  0.000  0.285

 Mode:                 7                      8                      9
 Frequency:       501.02                 501.21                 690.47
 Force Cnst:      2.0607                 2.0644                 3.8377
 Red. Mass:      13.9331                13.9478                13.6627
 IR Active:          YES                    YES                    YES
 IR Intens:        2.122                  2.134                 13.099
 Raman Active:       YES                    YES                    YES
               X      Y      Z        X      Y      Z        X      Y      Z
 O         -0.000 -0.002 -0.000   -0.000 -0.000  0.003   -0.004  0.000 -0.000
 H         -0.001  0.012 -0.000   -0.020 -0.004 -0.012   -0.004  0.000 -0.000
 H         -0.001  0.012  0.000    0.020  0.004 -0.012   -0.004  0.000  0.000
 H          0.020  0.506  0.000    0.000  0.000 -0.505    0.468 -0.019  0.000
 C          0.010  0.250  0.000    0.000  0.000 -0.251    0.446 -0.017  0.000
 F         -0.046  0.411 -0.000   -0.000  0.000  0.532   -0.085  0.432 -0.000
 F          0.019 -0.298  0.407   -0.068 -0.405 -0.174   -0.109 -0.210 -0.371
 F          0.019 -0.298 -0.407    0.068  0.405 -0.174   -0.109 -0.210  0.371
 TransDip   0.002  0.047  0.000    0.000  0.000 -0.047    0.116 -0.004  0.000

 Mode:                10                     11                     12
 Frequency:      1126.72                1126.74                1127.41
 Force Cnst:      4.7977                 4.8775                 6.2246
 Red. Mass:       6.4143                 6.5208                 8.3119
 IR Active:          YES                    YES                    YES
 IR Intens:      317.036                318.334                 94.373
 Raman Active:       YES                    YES                    YES
               X      Y      Z        X      Y      Z        X      Y      Z
 O         -0.000 -0.002 -0.000    0.000  0.000 -0.003    0.001  0.000  0.000
 H          0.000  0.011  0.001    0.017 -0.002  0.011   -0.003 -0.001 -0.003
 H          0.000  0.011 -0.001   -0.017  0.002  0.011   -0.003 -0.001  0.003
 H          0.046  0.757  0.000    0.000 -0.000  0.752    0.662 -0.047 -0.000
 C          0.038  0.563  0.000    0.000 -0.000  0.570    0.627 -0.044 -0.000
 F         -0.135 -0.235 -0.000    0.000  0.000 -0.030   -0.147 -0.171  0.000
 F          0.054 -0.080 -0.085    0.102 -0.094 -0.185   -0.142  0.101  0.162
 F          0.054 -0.080  0.085   -0.102  0.094 -0.185   -0.142  0.101 -0.162
 TransDip   0.031  0.569  0.000    0.000 -0.000  0.571    0.310 -0.029 -0.000

 Mode:                13                     14                     15
 Frequency:      1381.67                1386.57                1587.59
 Force Cnst:      1.3379                 1.3420                 1.6086
 Red. Mass:       1.1895                 1.1847                 1.0832
 IR Active:          YES                    YES                    YES
 IR Intens:       33.797                 32.078                 80.937
 Raman Active:       YES                    YES                    YES
               X      Y      Z        X      Y      Z        X      Y      Z
 O          0.000 -0.000  0.000    0.000 -0.000 -0.001   -0.071 -0.003 -0.000
 H         -0.001  0.000 -0.000    0.003  0.000  0.002    0.562  0.022  0.426
 H         -0.001  0.000  0.000   -0.003 -0.000  0.002    0.562  0.022 -0.426
 H          0.038  0.991 -0.000    0.000  0.000  0.992    0.001  0.001  0.000
 C         -0.005 -0.121  0.000   -0.000 -0.000 -0.119    0.001 -0.000  0.000
 F         -0.024  0.003  0.000   -0.000  0.000  0.014   -0.000 -0.000  0.000
 F          0.013  0.010 -0.005    0.021 -0.006  0.005   -0.000  0.000  0.000
 F          0.013  0.010  0.005   -0.021  0.006  0.005   -0.000  0.000 -0.000
 TransDip  -0.008 -0.186  0.000   -0.000 -0.000 -0.181    0.288  0.010  0.000

 Mode:                16                     17                     18
 Frequency:      3191.84                3821.53                3924.77
 Force Cnst:      6.5511                 8.9905                 9.8262
 Red. Mass:       1.0914                 1.0449                 1.0827
 IR Active:          YES                    YES                    YES
 IR Intens:       17.446                  6.773                 75.351
 Raman Active:       YES                    YES                    YES
               X      Y      Z        X      Y      Z        X      Y      Z
 O         -0.001 -0.000 -0.000   -0.050 -0.002 -0.000    0.000 -0.000 -0.071
 H         -0.001 -0.000  0.000    0.394  0.016 -0.586   -0.427 -0.017  0.561
 H         -0.001 -0.000 -0.000    0.394  0.016  0.586    0.427  0.017  0.561
 H          0.995 -0.038 -0.000    0.000 -0.000  0.000   -0.000  0.000 -0.000
 C         -0.087  0.003 -0.000   -0.000  0.000  0.000   -0.000  0.000  0.000
 F          0.001  0.000 -0.000    0.000  0.000  0.000    0.000 -0.000 -0.000
 F          0.001 -0.000 -0.000    0.000 -0.000 -0.000   -0.000 -0.000 -0.000
 F          0.001 -0.000  0.000    0.000 -0.000  0.000    0.000  0.000 -0.000
 TransDip  -0.134  0.005 -0.000    0.083  0.003  0.000   -0.000  0.000  0.278

 STANDARD THERMODYNAMIC QUANTITIES AT   298.15 K  AND     1.00 ATM

   This Molecule has  1 Imaginary Frequencies
   Zero point vibrational energy:       29.677 kcal/mol

   Atom    1 Element O  Has Mass   15.99491
   Atom    2 Element H  Has Mass    1.00783
   Atom    3 Element H  Has Mass    1.00783
   Atom    4 Element H  Has Mass    1.00783
   Atom    5 Element C  Has Mass   12.00000
   Atom    6 Element F  Has Mass   18.99840
   Atom    7 Element F  Has Mass   18.99840
   Atom    8 Element F  Has Mass   18.99840
   Molecular Mass:    88.013600 amu
   Principal axes and moments of inertia in amu*Bohr^2:
                             1           2           3
    Eigenvalues --      325.46213   992.68104   997.16771
          X              -1.00000     0.00000     0.00049
          Y              -0.00049     0.00000    -1.00000
          Z              -0.00000     1.00000     0.00000
   Rotational Symmetry Number is   1
   The Molecule is an Asymmetric Top
   Translational Enthalpy:        0.889 kcal/mol
   Rotational Enthalpy:           0.889 kcal/mol
   Vibrational Enthalpy:         32.535 kcal/mol
   gas constant (RT):             0.592 kcal/mol
   Translational Entropy:        39.337  cal/mol.K
   Rotational Entropy:           27.268  cal/mol.K
   Vibrational Entropy:          24.941  cal/mol.K

   Total Enthalpy:               34.905 kcal/mol
   Total Entropy:                91.546  cal/mol.K

   Quasi-RRHO corrections using alpha = 4, and omega = 100 cm^-1
   QRRHO-Vib. Enthalpy:          31.563 kcal/mol
   QRRHO-Vib. Entropy:           19.836  cal/mol.K
   QRRHO-Total Enthalpy:         33.933 kcal/mol
   QRRHO-Total Entropy:          86.442  cal/mol.K
 Total job time:  342.57s(wall), 1008.04s(cpu) 
 Tue Nov  5 14:39:32 2024

        *************************************************************
        *                                                           *
        *  Thank you very much for using Q-Chem.  Have a nice day.  *
        *                                                           *
        *************************************************************


