
Running Job 1 of 6 Me3SiH_ICN_adiabatic_eda.in
qchem Me3SiH_ICN_adiabatic_eda.in_2664729.0 /data/scratch/Me3SiH_ICN_adiabatic_eda20241112234507/ 1
/opt/qchem/6.2.0/exe/qcprog.exe_s Me3SiH_ICN_adiabatic_eda.in_2664729.0 /data/scratch/Me3SiH_ICN_adiabatic_eda20241112234507/
                  Welcome to Q-Chem
     A Quantum Leap Into The Future Of Chemistry


 Q-Chem 6.2, Q-Chem, Inc., Pleasanton, CA (2024)

 E. Epifanovsky,  A. T. B. Gilbert,  Xintian Feng,  Joonho Lee,  Yuezhi Mao,  
 N. Mardirossian,  P. Pokhilko,  A. White,  M. Wormit,  M. P. Coons,  
 A. L. Dempwolff,  Zhengting Gan,  D. Hait,  P. R. Horn,  L. D. Jacobson,  
 I. Kaliman,  J. Kussmann,  A. W. Lange,  Ka Un Lao,  D. S. Levine,  Jie Liu,  
 S. C. McKenzie,  A. F. Morrison,  K. D. Nanda,  F. Plasser,  D. R. Rehn,  
 M. L. Vidal,  Zhi-Qiang You,  Ying Zhu,  Huseyin Aksu,  B. Alam,  
 B. Albrecht,  A. Aldossary,  E. Alguire,  J. H. Andersen,  
 J. E. Arias-Martinez,  V. Athavale,  D. Barton,  K. Begam,  A. Behn,  
 N. Bellonzi,  Y. A. Bernard,  E. J. Berquist,  H. Burton,  A. Carreras,  
 K. Carter-Fenk,  Mathew Chow,  Romit Chakraborty,  Chandrima Chakravarty,  
 Junhan Chen,  A. D. Chien,  K. D. Closser,  V. Cofer-Shabica,  L. Cunha,  
 S. Dasgupta,  Jia Deng,  Joseph Dickinson,  M. de Wergifosse,  
 M. Diedenhofen,  Hainam Do,  Wenjie Dou,  S. Ehlert,  Po-Tung Fang,  
 S. Fatehi,  Qingguo Feng,  Jonathan Fetherolf,  T. Friedhoff,  
 Thomas Froitzheim,  Sarai Folkestad,  B. Ganoe,  J. Gayvert,  Qinghui Ge,  
 G. Gidofalvi,  M. Gimferrer,  M. Goldey,  Montgomery Gray,  J. Gomes,  
 C. Gonzalez-Espinoza,  S. Gulania,  A. Gunina,  J. A. Gyamfi,  
 M. W. D. Hanson-Heine,  P. H. P. Harbach,  A. W. Hauser,  M. F. Herbst,  
 M. Hernandez Vera,  M. Hodecker,  Z. C. Holden,  S. Houck,  Xunkun Huang,  
 Kerwin Hui,  B. C. Huynh,  K. Ikeda,  M. Ivanov,  Nayanthara K. Jayadev,  
 Hyunjun Ji,  Zuxin Jin,  Hanjie Jiang,  Subrata Jana,  B. Kaduk,  
 S. Kaehler,  R. Kang,  K. Khistyaev,  Jaehoon Kim,  Yongbin Kim,  
 P. Klunzinger,  Z. Koczor-Benda,  Joong Hoon Koh,  D. Kosenkov,  
 Saikiran Kotaru,  L. Koulias,  T. Kowalczyk,  C. M. Krauter,  K. Kue,  
 A. Kunitsa,  T. Kus,  A. Landau,  K. V. Lawler,  D. Lefrancois,  S. Lehtola,  
 Rain Li,  Shaozhi Li,  Tao E. Li,  Yi-Pei Li,  Jiashu Liang,  M. Liebenthal,  
 Hung-Hsuan Lin,  You-Sheng Lin,  Fenglai Liu,  Kuan-Yu Liu,  Xiao Liu,  
 M. Loipersberger,  A. Luenser,  C. Malbon,  Aniket Mandal,  Manisha,  
 A. Manjanath,  P. Manohar,  E. Mansoor,  S. F. Manzer,  Shan-Ping Mao,  
 A. V. Marenich,  T. Markovich,  S. Mason,  F. Matz,  S. A. Maurer,  
 Samuel May,  Alexandra McIsaac,  P. F. McLaughlin,  M. F. S. J. Menger,  
 J.-M. Mewes,  S. A. Mewes,  P. Morgante,  Mohammad Mostafanejad,  
 Madhubani Mukherjee,  J. W. Mullinax,  Quyen Nguyen,  Avik Kumar Ojha,  
 K. J. Oosterbaan,  Eno Paenurk,  Xiaoliang Pan,  G. Paran,  V. Parravicini,  
 Alexander C. Paul,  Suranjan K. Paul,  F. Pavosevic,  Zheng Pei,  S. Prager,  
 E. I. Proynov,  E. Ramos,  B. Rana,  A. E. Rask,  A. Rettig,  R. M. Richard,  
 F. Rob,  E. Rossomme,  T. Scheele,  M. Scheurer,  M. Schneider,  
 P. E. Schneider,  Tim K. Schramm,  N. Sergueev,  S. M. Sharada,  
 Hengyuan Shen,  W. Skomorowski,  D. W. Small,  C. J. Stein,  
 Alistair J. Sterling,  Yingli Su,  Yu-Chuan Su,  E. J. Sundstrom,  
 J. Talbot,  Zhen Tao,  J. Thirman,  Hung-Yi Tsai,  T. Tsuchimochi,  
 N. M. Tubman,  C. Utku,  S. P. Veccham,  O. Vydrov,  Rahel Weiss,  
 J. Wenzel,  Jonathan Wong,  J. Witte,  H. Wu,  Yanze Wu,  A. Yamada,  
 Chou-Hsun Yang,  Kun Yao,  S. Yeganeh,  S. R. Yost,  Qi Yu,  A. Zech,  
 F. Zeller,  Chongxiao Zhao,  Igor Ying Zhang,  Xing Zhang,  Yu Zhang,  
 D. Zuev,  A. Aspuru-Guzik,  A. T. Bell,  N. A. Besley,  K. B. Bravaya,  
 B. R. Brooks,  D. Casanova,  Jeng-Da Chai,  Hsing-Ta Chen,  S. Coriani,  
 C. J. Cramer,  A. E. DePrince, III,  R. A. DiStasio Jr.,  A. Dreuw,  
 B. D. Dunietz,  T. R. Furlani,  W. A. Goddard III,  S. Grimme,  
 S. Hammes-Schiffer,  T. Head-Gordon,  W. J. Hehre,  Chao-Ping Hsu,  
 T.-C. Jagau,  Yousung Jung,  A. Klamt,  Jing Kong,  D. S. Lambrecht,  
 Xiangyuan Li,  WanZhen Liang,  N. J. Mayhall,  C. W. McCurdy,  J. B. Neaton,  
 T. Neudecker,  C. Ochsenfeld,  J. A. Parkhill,  R. Peverati,  
 V. A. Rassolov,  Haisheng Ren,  Yihan Shao,  L. V. Slipchenko,  
 R. P. Steele,  J. E. Subotnik,  A. J. W. Thom,  A. Tkatchenko,  
 D. G. Truhlar,  T. Van Voorhis,  Fan Wang,  T. A. Wesolowski,  K. B. Whaley,  
 H. L. Woodcock III,  P. M. Zimmerman,  S. Faraji,  P. M. W. Gill,  
 M. Head-Gordon,  J. M. Herbert,  A. I. Krylov

 Contributors to earlier versions of Q-Chem not listed above: 
 R. D. Adamson,  B. Austin,  R. Baer,  J. Baker,  G. J. O. Beran,  
 K. Brandhorst,  S. T. Brown,  E. F. C. Byrd,  Arup K. Chakraborty,  
 G. K. L. Chan,  Chun-Min Chang,  Yunqing Chen,  C.-L. Cheng,  
 Siu Hung Chien,  D. M. Chipman,  D. L. Crittenden,  H. Dachsel,  
 R. J. Doerksen,  A. D. Dutoi,  R. G. Edgar,  J. Fosso-Tande,  
 L. Fusti-Molnar,  D. Ghosh,  A. Ghysels,  A. Golubeva-Zadorozhnaya,  
 J. Gonthier,  M. S. Gordon,  S. R. Gwaltney,  G. Hawkins,  J. E. Herr,  
 A. Heyden,  S. Hirata,  E. G. Hohenstein,  G. Kedziora,  F. J. Keil,  
 C. Kelley,  Jihan Kim,  R. A. King,  R. Z. Khaliullin,  P. P. Korambath,  
 W. Kurlancheek,  A. Laurent,  A. M. Lee,  M. S. Lee,  S. V. Levchenko,  
 Ching Yeh Lin,  D. Liotard,  E. Livshits,  R. C. Lochan,  I. Lotan,  
 L. A. Martinez-Martinez,  P. E. Maslen,  N. Nair,  D. P. O'Neill,  
 D. Neuhauser,  E. Neuscamman,  C. M. Oana,  R. Olivares-Amaya,  R. Olson,  
 T. M. Perrine,  B. Peters,  P. A. Pieniazek,  A. Prociuk,  Y. M. Rhee,  
 J. Ritchie,  M. A. Rohrdanz,  E. Rosta,  N. J. Russ,  H. F. Schaefer III,  
 M. W. Schmidt,  N. E. Schultz,  S. Sharma,  N. Shenvi,  C. D. Sherrill,  
 A. C. Simmonett,  A. Sodt,  T. Stein,  D. Stuck,  K. S. Thanthiriwatte,  
 V. Vanovschi,  L. Vogt,  Tao Wang,  A. Warshel,  M. A. Watson,  
 C. F. Williams,  Q. Wu,  X. Xu,  Jun Yang,  W. Zhang,  Yan Zhao

   Please cite Q-Chem as follows:
  "Software for the frontiers of quantum chemistry:
   An overview of developments in the Q-Chem 5 package"
   J. Chem. Phys. 155, 084801 (2021)
   https://doi.org/10.1063/5.0055522 (open access)

 Q-Chem 6.2.0 for Intel X86 EM64T Linux

 Parts of Q-Chem use Armadillo 9.900.5 (Nocturnal Misbehaviour).
 http://arma.sourceforge.net/

 Q-Chem begins on Tue Nov 12 23:45:07 2024  

 Host: 
0

     Scratch files written to /data/scratch/Me3SiH_ICN_adiabatic_eda20241112234507//
 May224 |scratch|qcdevops|jenkins|workspace|build_RNUM -1
 Processing $rem in /opt/qchem/6.2.0/config/preferences:
 Processing $rem in /home/ymao/.qchemrc:

 Checking the input file for inconsistencies... 	...done.
 Reading auxiliary files from /opt/qchem/6.2.0/qcaux (QCAUX)

--------------------------------------------------------------
User input:
--------------------------------------------------------------
$molecule
0 1
--
0 1
H    0.03437    -0.05888   0.02542
Si   0.00790    -0.01350   1.51767
C    1.77703    0.00779    2.12478
H    2.31300    -0.88897   1.81674
H    2.31708    0.87123    1.73898
H    1.80646    0.05495    3.21325
C    -0.89705   1.54226    2.02410
H    -0.39498   2.43123    1.64570
H    -0.94260   1.62044    3.11008
H    -1.91797   1.54537    1.64561
C    -0.88532   -1.54080   2.12463
H    -0.94093   -1.54313   3.21309
H    -0.37080   -2.45002   1.81656
H    -1.90283   -1.58331   1.73875
--
0 1
I    1.16661    -2.00485   -1.55457
C    1.99354    -3.42611   -2.68666
N    2.48051    -4.26307   -3.35124
$end

$rem
JOBTYPE  OPT
GEN_SCFMAN  TRUE
METHOD  B3LYP
DFT_D  D3_BJ
BASIS  DEF2-SVPD
UNRESTRICTED  FALSE
MAX_SCF_CYCLES  2000
THRESH  14
SCF_CONVERGENCE  9
MEM_TOTAL  8000
MEM_STATIC  2000
SCF_GUESS  FRAGMO
SYMMETRY  FALSE
SYM_IGNORE  FALSE
SCF_ALGORITHM  DIIS
BASIS_LIN_DEP_THRESH  6
IDERIV  1
XC_GRID  000075000302
NL_GRID  1
FD_MAT_VEC_PROD  FALSE
GEOM_OPT_TOL_GRADIENT  50
GEOM_OPT_TOL_DISPLACEMENT  50
GEOM_OPT_TOL_ENERGY  10
GEOM_OPT_DRIVER  OPTIMIZE
GEOM_OPT_MAX_CYCLES  200
$end

--------------------------------------------------------------
 Adding empirical dispersion correction 
 ----------------------------------------------------------------
 Doing -D3(BJ) with
 s6  =   1.00000
 s8  =   1.98890
 a1  =   0.39810
 a2  =   4.42110
 ----------------------------------------------------------------
 -D3 energy without 3body term =     -0.0273121500 hartrees
 ----------------------------------------------------------------
             Standard Nuclear Orientation (Angstroms)
    I     Atom           X                Y                Z
 ----------------------------------------------------------------
    1      H      -1.3684461797    -0.0000077233     0.9510725924
    2      Si     -2.5382954640    -0.0000008534     0.0231594932
    3      C      -2.4352152778    -1.5398802491    -1.0337239890
    4      H      -1.5231840883    -1.5521682230    -1.6290214737
    5      H      -2.4494732122    -2.4408727243    -0.4221411680
    6      H      -3.2805047185    -1.5890718723    -1.7199623419
    7      C      -4.0911357363    -0.0001930752     1.0645441853
    8      H      -4.1377277703    -0.8811963871     1.7026592632
    9      H      -4.9763791840    -0.0001749965     0.4290258824
   10      H      -4.1378324882     0.8806907967     1.7028270505
   11      C      -2.4353973943     1.5400935204    -1.0334430843
   12      H      -3.2806744512     1.5892942833    -1.7196857925
   13      H      -1.5233551026     1.5526118735    -1.6287086660
   14      H      -2.4497816429     2.4409718829    -0.4216846810
   15      I       1.2943991407    -0.0000057945     0.2623129403
   16      C       3.2225847067     0.0000066071    -0.2549117723
   17      N       4.3564747266     0.0000116185    -0.5608559203
 ----------------------------------------------------------------
 Molecular Point Group                 C1    NOp =  1
 Largest Abelian Subgroup              C1    NOp =  1
 Nuclear Repulsion Energy =         436.52762713 hartrees
 There are       40 alpha and       40 beta electrons
 Requested basis set is def2-SVPD
 There are 103 shells and 239 basis functions

 Total QAlloc Memory Limit   8000 MB
 Mega-Array Size      1956 MB
 MEM_STATIC part      2000 MB

 A cutoff of  1.0D-14 yielded   4907 shell pairs
 There are     26479 function pairs (     29928 Cartesian)
 Requested basis set is def2-SVPD
 Compound shells will be simplified
 There are 103 shells and 239 basis functions
 A cutoff of  1.0D-14 yielded   4907 shell pairs
 There are     26479 function pairs (     29928 Cartesian)
 Smallest overlap matrix eigenvalue = 1.43E-04

 Scale SEOQF with 1.000000e-01/1.000000e-01/1.000000e-01

 Standard Electronic Orientation quadrupole field applied
 Nucleus-field energy     =     0.0000000205 hartrees
 Attempting to make child job directory: /data/scratch/Me3SiH_ICN_adiabatic_eda20241112234507//Frg1/
 Attempting to make child job directory: /data/scratch/Me3SiH_ICN_adiabatic_eda20241112234507//Frg2/
 Creating input file /data/scratch/Me3SiH_ICN_adiabatic_eda20241112234507/Frg1.input
 using default PutDataFrgm: nothing
 calling putenv with: QCSCRATCH=/data/scratch/Me3SiH_ICN_adiabatic_eda20241112234507/ 
 Spawning Job For Fragment 0
 Done Job For Fragment 0
 calling putenv with: QCSCRATCH=/data/scratch 
 calling putenv with: QCTHREADS=16 
 Creating input file /data/scratch/Me3SiH_ICN_adiabatic_eda20241112234507/Frg2.input
 using default PutDataFrgm: nothing
 calling putenv with: QCSCRATCH=/data/scratch/Me3SiH_ICN_adiabatic_eda20241112234507/ 
 Spawning Job For Fragment 1
 Done Job For Fragment 1
 calling putenv with: QCSCRATCH=/data/scratch 
 calling putenv with: QCTHREADS=16 
 Time for running child jobs:  CPU 2.31 s  wall 9.88 s

 -----------------------------------------------------------------------
  General SCF calculation program by
  Eric Jon Sundstrom, Paul Horn, Yuezhi Mao, Dmitri Zuev, Alec White,
  David Stuck, Shaama M.S., Shane Yost, Joonho Lee, David Small,
  Daniel Levine, Susi Lehtola, Hugh Burton, Evgeny Epifanovsky,
  Bang C. Huynh
 -----------------------------------------------------------------------
 Exchange:     0.2000 Hartree-Fock + 0.0800 Slater + 0.7200 B88
 Correlation:  0.1900 VWN1RPA + 0.8100 LYP
 Using Euler-Maclaurin-Lebedev (75,302) quadrature formula
 Dispersion:   Grimme D3
 using 16 threads for integral computing
 -------------------------------------------------------
 OpenMP Integral computing Module                
 Release: version 1.0, May 2013, Q-Chem Inc. Pittsburgh 
 -------------------------------------------------------
 A restricted SCF calculation will be
 performed using DIIS
 SCF converges when DIIS error is below 1.0e-09
 ---------------------------------------
  Cycle       Energy         DIIS error
 ---------------------------------------
    1    -800.2805911060      9.78e-04  
    2    -800.2868086482      1.45e-04  
    3    -800.2869057947      1.28e-04  
    4    -800.2870483370      3.89e-05  
    5    -800.2870550583      2.58e-05  
    6    -800.2870589071      7.47e-06  
    7    -800.2870592993      1.54e-06  
    8    -800.2870593186      5.48e-07  
    9    -800.2870593213      6.87e-08  
   10    -800.2870593213      2.52e-08  
   11    -800.2870593213      7.46e-09  
   12    -800.2870593213      1.36e-09  
   13    -800.2870593213      2.63e-10  Convergence criterion met
 ---------------------------------------
 SCF time:   CPU 325.95s  wall 20.00s 
 SCF   energy =  -800.28705932
 Total energy =  -800.28705932
 
 --------------------------------------------------------------
 
                    Orbital Energies (a.u.)
 --------------------------------------------------------------
 
 Alpha MOs
 -- Occupied --
-66.1235 -14.3484 -10.2588 -10.1794 -10.1786 -10.1785  -6.9026  -5.2869
 -4.9323  -4.9132  -4.9131  -3.6496  -3.6484  -3.6484  -1.9802  -1.9735
 -1.9735  -1.9574  -1.9574  -0.9055  -0.7732  -0.7297  -0.6927  -0.6922
 -0.5152  -0.4915  -0.4389  -0.4283  -0.4283  -0.4111  -0.4109  -0.4011
 -0.3802  -0.3801  -0.3767  -0.3343  -0.3254  -0.3249  -0.2989  -0.2986
 -- Virtual --
 -0.0647  -0.0083  -0.0076  -0.0049   0.0119   0.0223   0.0258   0.0449
  0.0474   0.0538   0.0654   0.0729   0.0736   0.0813   0.0817   0.0892
  0.0912   0.1003   0.1066   0.1133   0.1141   0.1247   0.1288   0.1372
  0.1446   0.1475   0.1503   0.1699   0.1912   0.1965   0.1991   0.1995
  0.2137   0.2228   0.2300   0.2356   0.2432   0.2541   0.2647   0.2770
  0.2772   0.2858   0.2966   0.3017   0.3038   0.3068   0.3212   0.3230
  0.3268   0.3351   0.3353   0.3521   0.3535   0.3548   0.3618   0.3636
  0.3766   0.3770   0.3847   0.3865   0.3888   0.3897   0.4040   0.4111
  0.4154   0.4232   0.4360   0.4383   0.4405   0.4406   0.4538   0.4550
  0.4623   0.4626   0.4736   0.4878   0.5017   0.5096   0.5137   0.5154
  0.5202   0.5252   0.5336   0.5462   0.5484   0.5552   0.5601   0.5649
  0.5926   0.5983   0.5989   0.6115   0.6189   0.6348   0.6516   0.6753
  0.6851   0.6874   0.7163   0.7401   0.7570   0.7604   0.7780   0.7854
  0.8031   0.8134   0.8244   0.8478   0.8640   0.8790   0.9007   0.9155
  0.9312   0.9318   0.9529   0.9697   0.9744   0.9822   0.9856   0.9873
  1.0168   1.0445   1.0497   1.0543   1.0756   1.1261   1.1368   1.1608
  1.1610   1.1646   1.1890   1.2124   1.2227   1.2287   1.2454   1.2833
  1.2870   1.3307   1.3447   1.5336   1.5685   1.5839   1.6016   1.6335
  1.6526   1.6743   1.6950   1.7014   1.7087   1.7574   1.7595   1.7774
  1.7825   1.8007   1.8328   1.9077   1.9143   1.9146   1.9207   1.9482
  1.9544   1.9665   1.9904   2.0205   2.0338   2.0500   2.0914   2.1046
  2.1280   2.1356   2.2198   2.3401   2.3690   2.3694   2.4282   2.4293
  2.5066   2.5105   2.5114   2.5254   2.5290   2.5411   2.5910   2.8025
  2.8084   2.8134   2.8467   2.8480   3.0689   3.0755   3.0764   3.1080
  3.1157   3.1335   3.4246  18.8159  18.8769  19.7513  56.3375
 --------------------------------------------------------------
 
          Ground-State Mulliken Net Atomic Charges

     Atom                 Charge (a.u.)
  ----------------------------------------
      1 H                     0.178735
      2 Si                   -0.553207
      3 C                     0.578793
      4 H                    -0.194816
      5 H                    -0.165720
      6 H                    -0.149407
      7 C                     0.689164
      8 H                    -0.153237
      9 H                    -0.133555
     10 H                    -0.153204
     11 C                     0.578796
     12 H                    -0.149419
     13 H                    -0.194827
     14 H                    -0.165694
     15 I                     0.334610
     16 C                    -0.234920
     17 N                    -0.112090
  ----------------------------------------
  Sum of atomic charges =     0.000000

 -----------------------------------------------------------------
                    Cartesian Multipole Moments
 -----------------------------------------------------------------
    Charge (ESU x 10^10)
                -0.0000
    Dipole Moment (Debye)
         X      -5.3994      Y      -0.0000      Z       0.5778
       Tot       5.4303
    Quadrupole Moments (Debye-Ang)
        XX     -90.3129     XY      -0.0000     YY     -72.9789
        XZ       4.1757     YZ       0.0000     ZZ     -73.5396
    Octopole Moments (Debye-Ang^2)
       XXX     -62.7783    XXY      -0.0002    XYY      21.1457
       YYY      -0.0016    XXZ      17.5187    XYZ      -0.0005
       YYZ       8.0649    XZZ      18.9992    YZZ       0.0005
       ZZZ      13.4521
    Hexadecapole Moments (Debye-Ang^3)
      XXXX   -3706.9250   XXXY      -0.0055   XXYY    -584.0452
      XYYY       0.0031   YYYY    -355.1078   XXXZ     138.2354
      XXYZ       0.0028   XYYZ      -3.2185   YYYZ       0.0003
      XXZZ    -588.0625   XYZZ      -0.0016   YYZZ    -112.2633
      XZZZ      23.5457   YZZZ      -0.0004   ZZZZ    -310.8298
 -----------------------------------------------------------------
 Calculating analytic gradient of the SCF energy
 Gradient of SCF Energy
            1           2           3           4           5           6
    1  -0.0047988   0.0007026  -0.0001914  -0.0060326   0.0000435   0.0055683
    2   0.0000004  -0.0000027  -0.0026844   0.0001999   0.0061967   0.0004200
    3  -0.0028163   0.0009722  -0.0018751   0.0039173  -0.0039760   0.0045887
            7           8           9          10          11          12
    1  -0.0030509   0.0004849   0.0059310   0.0004847  -0.0001919   0.0055713
    2  -0.0000045   0.0059303   0.0000007  -0.0059260   0.0026847  -0.0004212
    3   0.0012271  -0.0044337   0.0043727  -0.0044330  -0.0018837   0.0045914
           13          14          15          16          17
    1  -0.0060355   0.0000452   0.0113265  -0.0380484   0.0281914
    2  -0.0002012  -0.0061927  -0.0000001  -0.0000001   0.0000001
    3   0.0039195  -0.0039747  -0.0028254   0.0102495  -0.0076204
 Max gradient component =       3.805E-02
 RMS gradient           =       7.781E-03
 Gradient time:  CPU 90.68 s  wall 5.83 s
 Geometry Optimization Parameters
   NAtoms,    NIC,     NZ,  NCons,   NDum,   NFix, NCnnct, MaxDiis
       17     109       0       0       0       0       0       0


** GEOMETRY OPTIMIZATION IN DELOCALIZED INTERNAL COORDINATES **
   Searching for a Minimum

   Optimization Cycle:   1

                       Coordinates (Angstroms)
     ATOM                X               Y               Z
      1  H        -1.3684461797   -0.0000077233    0.9510725924
      2  Si       -2.5382954640   -0.0000008534    0.0231594932
      3  C        -2.4352152778   -1.5398802491   -1.0337239890
      4  H        -1.5231840883   -1.5521682230   -1.6290214737
      5  H        -2.4494732122   -2.4408727243   -0.4221411680
      6  H        -3.2805047185   -1.5890718723   -1.7199623419
      7  C        -4.0911357363   -0.0001930752    1.0645441853
      8  H        -4.1377277703   -0.8811963871    1.7026592632
      9  H        -4.9763791840   -0.0001749965    0.4290258824
     10  H        -4.1378324882    0.8806907967    1.7028270505
     11  C        -2.4353973943    1.5400935204   -1.0334430843
     12  H        -3.2806744512    1.5892942833   -1.7196857925
     13  H        -1.5233551026    1.5526118735   -1.6287086660
     14  H        -2.4497816429    2.4409718829   -0.4216846810
     15  I         1.2943991407   -0.0000057945    0.2623129403
     16  C         3.2225847067    0.0000066071   -0.2549117723
     17  N         4.3564747266    0.0000116185   -0.5608559203
   Point Group: c1    Number of degrees of freedom:    45


   Energy is   -800.287059321


 Attempting to generate delocalized internal coordinates
 Initial Hessian constructed with Jon Baker's OPTIMIZE code

 45 Hessian modes will be used to form the next step
  Hessian Eigenvalues:
     0.002000    0.004970    0.004972    0.005080    0.018559    0.036442
     0.045957    0.046002    0.055501    0.055501    0.055767    0.056534
     0.056535    0.056679    0.145929    0.146433    0.152117    0.160000
     0.160000    0.160000    0.160000    0.160000    0.160000    0.160000
     0.160000    0.160000    0.160000    0.171660    0.200000    0.200000
     0.200000    0.200000    0.212644    0.212649    0.213140    0.348255
     0.348263    0.348424    0.349066    0.349073    0.349223    0.349230
     0.349487    0.349494    1.187916

 Minimum search - taking simple RFO step
 Searching for Lamda that Minimizes Along All modes
 Value Taken    Lamda =  -0.00332541
 Step Taken.  Stepsize is  0.126050

                             Maximum     Tolerance    Cnvgd?
         Gradient           0.020573      0.000050      NO
         Displacement       0.074220      0.000050      NO
         Energy change     *********      0.000000      NO


 New Cartesian Coordinates Obtained by Inverse Iteration

 Displacement from previous Coordinates is:  0.144877
 Adding empirical dispersion correction 
 ----------------------------------------------------------------
 Doing -D3(BJ) with
 s6  =   1.00000
 s8  =   1.98890
 a1  =   0.39810
 a2  =   4.42110
 ----------------------------------------------------------------
 -D3 energy without 3body term =     -0.0272512382 hartrees
 ----------------------------------------------------------------
             Standard Nuclear Orientation (Angstroms)
    I     Atom           X                Y                Z
 ----------------------------------------------------------------
    1      H      -1.3589913442    -0.0000133941     0.9618000624
    2      Si     -2.5381862795     0.0000000576     0.0238901193
    3      C      -2.4276438564    -1.5507084993    -1.0378628174
    4      H      -1.5042459900    -1.5624181605    -1.6355084223
    5      H      -2.4422460123    -2.4610742518    -0.4204246588
    6      H      -3.2782839183    -1.6032528523    -1.7345239785
    7      C      -4.0998557350    -0.0001901407     1.0741274108
    8      H      -4.1480958384    -0.8899006541     1.7190844638
    9      H      -4.9938413955    -0.0001724093     0.4317829386
   10      H      -4.1481929219     0.8893906298     1.7192572973
   11      C      -2.4278235075     1.5509193994    -1.0375760016
   12      H      -3.2784559419     1.6034829734    -1.7342441674
   13      H      -1.5044120910     1.5628563913    -1.6351959035
   14      H      -2.4425525629     2.4611662254    -0.4199655600
   15      I       1.2665394250    -0.0000059402     0.2708002898
   16      C       3.2260073105     0.0000064008    -0.2637994413
   17      N       4.3463365232     0.0000229077    -0.5701791129
 ----------------------------------------------------------------
 Molecular Point Group                 C1    NOp =  1
 Largest Abelian Subgroup              C1    NOp =  1
 Nuclear Repulsion Energy =         435.30780081 hartrees
 There are       40 alpha and       40 beta electrons
 Applying Cartesian multipole field
    Component          Value
    ---------          -----
     (2,0,0)        1.00000E-11
     (0,2,0)        2.00000E-11
     (0,0,2)       -3.00000E-11
 Nucleus-field energy     =     0.0000000204 hartrees
 Requested basis set is def2-SVPD
 There are 103 shells and 239 basis functions
 A cutoff of  1.0D-14 yielded   4907 shell pairs
 There are     26479 function pairs (     29928 Cartesian)
 Requested basis set is def2-SVPD
 Compound shells will be simplified
 There are 103 shells and 239 basis functions
 A cutoff of  1.0D-14 yielded   4907 shell pairs
 There are     26479 function pairs (     29928 Cartesian)
 Smallest overlap matrix eigenvalue = 1.48E-04
 Read the previous MOs as SCF guess

 -----------------------------------------------------------------------
  General SCF calculation program by
  Eric Jon Sundstrom, Paul Horn, Yuezhi Mao, Dmitri Zuev, Alec White,
  David Stuck, Shaama M.S., Shane Yost, Joonho Lee, David Small,
  Daniel Levine, Susi Lehtola, Hugh Burton, Evgeny Epifanovsky,
  Bang C. Huynh
 -----------------------------------------------------------------------
 Exchange:     0.2000 Hartree-Fock + 0.0800 Slater + 0.7200 B88
 Correlation:  0.1900 VWN1RPA + 0.8100 LYP
 Using Euler-Maclaurin-Lebedev (75,302) quadrature formula
 Dispersion:   Grimme D3
 A restricted SCF calculation will be
 performed using DIIS
 SCF converges when DIIS error is below 1.0e-09
 ---------------------------------------
  Cycle       Energy         DIIS error
 ---------------------------------------
    1    -800.2880062924      5.01e-04  
    2    -800.2885863148      1.30e-04  
    3    -800.2882667894      2.61e-04  
    4    -800.2886906399      4.36e-05  
    5    -800.2887042277      7.14e-06  
    6    -800.2887046020      2.02e-06  
    7    -800.2887046353      6.42e-07  
    8    -800.2887046392      1.17e-07  
    9    -800.2887046394      1.60e-08  
   10    -800.2887046394      8.42e-09  
   11    -800.2887046394      1.80e-09  
   12    -800.2887046394      4.04e-10  Convergence criterion met
 ---------------------------------------
 SCF time:   CPU 283.59s  wall 18.00s 
 SCF   energy =  -800.28870464
 Total energy =  -800.28870464
 
 --------------------------------------------------------------
 
                    Orbital Energies (a.u.)
 --------------------------------------------------------------
 
 Alpha MOs
 -- Occupied --
-66.1286 -14.3453 -10.2561 -10.1846 -10.1834 -10.1834  -6.9018  -5.2910
 -4.9317  -4.9122  -4.9122  -3.6538  -3.6525  -3.6524  -1.9792  -1.9727
 -1.9726  -1.9563  -1.9563  -0.9093  -0.7678  -0.7266  -0.6901  -0.6895
 -0.5131  -0.4895  -0.4368  -0.4263  -0.4262  -0.4096  -0.4093  -0.3998
 -0.3796  -0.3795  -0.3758  -0.3343  -0.3259  -0.3253  -0.2998  -0.2994
 -- Virtual --
 -0.0725  -0.0057  -0.0043  -0.0039   0.0120   0.0222   0.0257   0.0442
  0.0470   0.0536   0.0647   0.0718   0.0731   0.0796   0.0811   0.0854
  0.0909   0.0990   0.1042   0.1104   0.1124   0.1230   0.1285   0.1360
  0.1433   0.1472   0.1495   0.1703   0.1889   0.1942   0.1962   0.1963
  0.2114   0.2225   0.2293   0.2332   0.2414   0.2528   0.2633   0.2762
  0.2774   0.2857   0.2942   0.2992   0.3033   0.3047   0.3183   0.3206
  0.3252   0.3327   0.3328   0.3498   0.3513   0.3535   0.3590   0.3623
  0.3740   0.3747   0.3828   0.3835   0.3866   0.3898   0.4012   0.4087
  0.4130   0.4227   0.4335   0.4351   0.4404   0.4406   0.4515   0.4515
  0.4602   0.4605   0.4717   0.4870   0.4999   0.5078   0.5106   0.5139
  0.5183   0.5232   0.5329   0.5461   0.5475   0.5527   0.5597   0.5634
  0.5926   0.5978   0.6002   0.6088   0.6186   0.6316   0.6531   0.6705
  0.6857   0.6863   0.7173   0.7384   0.7559   0.7593   0.7735   0.7803
  0.7999   0.8090   0.8211   0.8456   0.8609   0.8741   0.8977   0.9145
  0.9265   0.9278   0.9475   0.9656   0.9681   0.9760   0.9799   0.9814
  1.0108   1.0423   1.0457   1.0523   1.0725   1.1231   1.1340   1.1562
  1.1600   1.1611   1.1861   1.2096   1.2243   1.2313   1.2460   1.2808
  1.2826   1.3259   1.3383   1.5401   1.5677   1.5836   1.6017   1.6341
  1.6543   1.6740   1.6891   1.6947   1.7038   1.7573   1.7591   1.7856
  1.7905   1.7954   1.8268   1.8964   1.8992   1.8996   1.9063   1.9326
  1.9408   1.9529   1.9736   2.0080   2.0184   2.0358   2.0764   2.0900
  2.1131   2.1204   2.2081   2.3261   2.3542   2.3544   2.4324   2.4335
  2.4881   2.4922   2.4935   2.5053   2.5091   2.5204   2.5984   2.7770
  2.7826   2.7857   2.8624   2.8635   3.0518   3.0560   3.0578   3.0880
  3.0955   3.1127   3.4469  18.8208  18.8842  19.6919  56.3305
 --------------------------------------------------------------
 
          Ground-State Mulliken Net Atomic Charges

     Atom                 Charge (a.u.)
  ----------------------------------------
      1 H                     0.150327
      2 Si                   -0.475978
      3 C                     0.486124
      4 H                    -0.163940
      5 H                    -0.136276
      6 H                    -0.126593
      7 C                     0.583367
      8 H                    -0.125532
      9 H                    -0.107172
     10 H                    -0.125520
     11 C                     0.486117
     12 H                    -0.126587
     13 H                    -0.163931
     14 H                    -0.136275
     15 I                     0.346585
     16 C                    -0.253471
     17 N                    -0.111246
  ----------------------------------------
  Sum of atomic charges =     0.000000

 -----------------------------------------------------------------
                    Cartesian Multipole Moments
 -----------------------------------------------------------------
    Charge (ESU x 10^10)
                -0.0000
    Dipole Moment (Debye)
         X      -5.4938      Y      -0.0000      Z       0.5819
       Tot       5.5245
    Quadrupole Moments (Debye-Ang)
        XX     -90.1513     XY      -0.0001     YY     -73.0707
        XZ       4.1846     YZ       0.0000     ZZ     -73.6470
    Octopole Moments (Debye-Ang^2)
       XXX     -59.8560    XXY      -0.0005    XYY      22.0373
       YYY      -0.0016    XXZ      17.6925    XYZ      -0.0003
       YYZ       7.8769    XZZ      19.7498    YZZ       0.0004
       ZZZ      13.0048
    Hexadecapole Moments (Debye-Ang^3)
      XXXX   -3692.0484   XXXY      -0.0083   XXYY    -583.1250
      XYYY       0.0019   YYYY    -360.0332   XXXZ     140.9804
      XXYZ       0.0027   XYYZ      -2.6432   YYYZ       0.0001
      XXZZ    -587.1071   XYZZ      -0.0021   YYZZ    -113.8052
      XZZZ      25.3018   YZZZ      -0.0004   ZZZZ    -315.6145
 -----------------------------------------------------------------
 Calculating analytic gradient of the SCF energy
 Gradient of SCF Energy
            1           2           3           4           5           6
    1  -0.0015139   0.0002470  -0.0000394  -0.0000206  -0.0000079   0.0000035
    2   0.0000002  -0.0000005  -0.0000305  -0.0000361   0.0000397   0.0000856
    3  -0.0002265   0.0007252  -0.0000577  -0.0000405   0.0000217   0.0000582
            7           8           9          10          11          12
    1  -0.0001981   0.0000364   0.0000526   0.0000362  -0.0000396   0.0000036
    2  -0.0000007  -0.0000060   0.0000003   0.0000064   0.0000313  -0.0000859
    3  -0.0003161   0.0000038   0.0000538   0.0000037  -0.0000590   0.0000585
           13          14          15          16          17
    1  -0.0000204  -0.0000077  -0.0006326   0.0014588   0.0006422
    2   0.0000361  -0.0000399   0.0000001  -0.0000004   0.0000002
    3  -0.0000402   0.0000219   0.0004773  -0.0005321  -0.0001520
 Max gradient component =       1.514E-03
 RMS gradient           =       3.597E-04
 Gradient time:  CPU 87.03 s  wall 5.55 s
 Geometry Optimization Parameters
   NAtoms,    NIC,     NZ,  NCons,   NDum,   NFix, NCnnct, MaxDiis
       17     109       0       0       0       0       0       0

 Cartesian Hessian Update
 Hessian updated using BFGS update


** GEOMETRY OPTIMIZATION IN DELOCALIZED INTERNAL COORDINATES **
   Searching for a Minimum

   Optimization Cycle:   2

                       Coordinates (Angstroms)
     ATOM                X               Y               Z
      1  H        -1.3589913442   -0.0000133941    0.9618000624
      2  Si       -2.5381862795    0.0000000576    0.0238901193
      3  C        -2.4276438564   -1.5507084993   -1.0378628174
      4  H        -1.5042459900   -1.5624181605   -1.6355084223
      5  H        -2.4422460123   -2.4610742518   -0.4204246588
      6  H        -3.2782839183   -1.6032528523   -1.7345239785
      7  C        -4.0998557350   -0.0001901407    1.0741274108
      8  H        -4.1480958384   -0.8899006541    1.7190844638
      9  H        -4.9938413955   -0.0001724093    0.4317829386
     10  H        -4.1481929219    0.8893906298    1.7192572973
     11  C        -2.4278235075    1.5509193994   -1.0375760016
     12  H        -3.2784559419    1.6034829734   -1.7342441674
     13  H        -1.5044120910    1.5628563913   -1.6351959035
     14  H        -2.4425525629    2.4611662254   -0.4199655600
     15  I         1.2665394250   -0.0000059402    0.2708002898
     16  C         3.2260073105    0.0000064008   -0.2637994413
     17  N         4.3463365232    0.0000229077   -0.5701791129
   Point Group: c1    Number of degrees of freedom:    45


   Energy is   -800.288704639

 Hessian updated using BFGS update

 35 Hessian modes will be used to form the next step
  Hessian Eigenvalues:
     0.002000    0.004970    0.004972    0.005080    0.017619    0.036353
     0.045957    0.046006    0.055498    0.055501    0.055765    0.056534
     0.056535    0.056679    0.145929    0.146404    0.159290    0.159962
     0.164752    0.172056    0.199900    0.200001    0.212646    0.212946
     0.213687    0.348162    0.348259    0.348360    0.349069    0.349143
     0.349226    0.349328    0.349490    0.350585    1.173942

 Minimum search - taking simple RFO step
 Searching for Lamda that Minimizes Along All modes
 Value Taken    Lamda =  -0.00015514
 Step Taken.  Stepsize is  0.082909

                             Maximum     Tolerance    Cnvgd?
         Gradient           0.001397      0.000050      NO
         Displacement       0.044275      0.000050      NO
         Energy change     -0.001645      0.000000      NO


 New Cartesian Coordinates Obtained by Inverse Iteration

 Displacement from previous Coordinates is:  0.154805
 Adding empirical dispersion correction 
 ----------------------------------------------------------------
 Doing -D3(BJ) with
 s6  =   1.00000
 s8  =   1.98890
 a1  =   0.39810
 a2  =   4.42110
 ----------------------------------------------------------------
 -D3 energy without 3body term =     -0.0274261273 hartrees
 ----------------------------------------------------------------
             Standard Nuclear Orientation (Angstroms)
    I     Atom           X                Y                Z
 ----------------------------------------------------------------
    1      H      -1.3518809017    -0.0000370667     0.9624502222
    2      Si     -2.5313791665    -0.0000083947     0.0225320101
    3      C      -2.4181966748    -1.5517280455    -1.0385460563
    4      H      -1.4931675137    -1.5624646976    -1.6345046400
    5      H      -2.4325448216    -2.4623572034    -0.4206066703
    6      H      -3.2676721409    -1.6062377630    -1.7373019692
    7      C      -4.0920511209    -0.0001848983     1.0755374838
    8      H      -4.1398582958    -0.8902645015     1.7208037421
    9      H      -4.9872156801    -0.0001572393     0.4338488600
   10      H      -4.1399352964     0.8897593133     1.7209848790
   11      C      -2.4183455618     1.5519225069    -1.0382525313
   12      H      -3.2678125682     1.6064727148    -1.7370155639
   13      H      -1.4933040722     1.5628691759    -1.6341885265
   14      H      -2.4328030425     2.4624323624    -0.4201404823
   15      I       1.2298711124     0.0000002475     0.2740143808
   16      C       3.1829242511     0.0000498619    -0.2605829699
   17      N       4.2994273577     0.0000423108    -0.5775696499
 ----------------------------------------------------------------
 Molecular Point Group                 C1    NOp =  1
 Largest Abelian Subgroup              C1    NOp =  1
 Nuclear Repulsion Energy =         437.06743259 hartrees
 There are       40 alpha and       40 beta electrons
 Applying Cartesian multipole field
    Component          Value
    ---------          -----
     (2,0,0)        1.00000E-11
     (0,2,0)        2.00000E-11
     (0,0,2)       -3.00000E-11
 Nucleus-field energy     =     0.0000000201 hartrees
 Requested basis set is def2-SVPD
 There are 103 shells and 239 basis functions
 A cutoff of  1.0D-14 yielded   4909 shell pairs
 There are     26481 function pairs (     29930 Cartesian)
 Requested basis set is def2-SVPD
 Compound shells will be simplified
 There are 103 shells and 239 basis functions
 A cutoff of  1.0D-14 yielded   4909 shell pairs
 There are     26481 function pairs (     29930 Cartesian)
 Smallest overlap matrix eigenvalue = 1.48E-04
 Read the previous MOs as SCF guess

 -----------------------------------------------------------------------
  General SCF calculation program by
  Eric Jon Sundstrom, Paul Horn, Yuezhi Mao, Dmitri Zuev, Alec White,
  David Stuck, Shaama M.S., Shane Yost, Joonho Lee, David Small,
  Daniel Levine, Susi Lehtola, Hugh Burton, Evgeny Epifanovsky,
  Bang C. Huynh
 -----------------------------------------------------------------------
 Exchange:     0.2000 Hartree-Fock + 0.0800 Slater + 0.7200 B88
 Correlation:  0.1900 VWN1RPA + 0.8100 LYP
 Using Euler-Maclaurin-Lebedev (75,302) quadrature formula
 Dispersion:   Grimme D3
 A restricted SCF calculation will be
 performed using DIIS
 SCF converges when DIIS error is below 1.0e-09
 ---------------------------------------
  Cycle       Energy         DIIS error
 ---------------------------------------
    1    -800.2886767205      1.98e-04  
    2    -800.2888017453      2.42e-05  
    3    -800.2887908849      4.84e-05  
    4    -800.2888058338      1.02e-05  
    5    -800.2888064713      2.83e-06  
    6    -800.2888065409      7.50e-07  
    7    -800.2888065464      1.77e-07  
    8    -800.2888065466      4.66e-08  
    9    -800.2888065466      1.17e-08  
   10    -800.2888065466      3.06e-09  
   11    -800.2888065466      9.66e-10  Convergence criterion met
 ---------------------------------------
 SCF time:   CPU 261.45s  wall 16.00s 
 SCF   energy =  -800.28880655
 Total energy =  -800.28880655
 
 --------------------------------------------------------------
 
                    Orbital Energies (a.u.)
 --------------------------------------------------------------
 
 Alpha MOs
 -- Occupied --
-66.1295 -14.3444 -10.2548 -10.1852 -10.1839 -10.1839  -6.9011  -5.2917
 -4.9311  -4.9116  -4.9115  -3.6546  -3.6532  -3.6532  -1.9786  -1.9721
 -1.9720  -1.9557  -1.9557  -0.9091  -0.7681  -0.7267  -0.6903  -0.6897
 -0.5143  -0.4890  -0.4369  -0.4264  -0.4264  -0.4099  -0.4096  -0.4000
 -0.3795  -0.3794  -0.3754  -0.3345  -0.3264  -0.3258  -0.2992  -0.2988
 -- Virtual --
 -0.0694  -0.0060  -0.0040  -0.0036   0.0121   0.0225   0.0260   0.0444
  0.0469   0.0536   0.0645   0.0715   0.0730   0.0793   0.0815   0.0849
  0.0911   0.0999   0.1039   0.1100   0.1121   0.1228   0.1291   0.1361
  0.1437   0.1484   0.1503   0.1703   0.1901   0.1945   0.1960   0.1964
  0.2112   0.2234   0.2293   0.2336   0.2409   0.2525   0.2633   0.2766
  0.2768   0.2868   0.2947   0.2978   0.3040   0.3046   0.3177   0.3210
  0.3255   0.3322   0.3325   0.3500   0.3511   0.3535   0.3586   0.3630
  0.3733   0.3756   0.3826   0.3831   0.3865   0.3896   0.4018   0.4080
  0.4138   0.4223   0.4330   0.4357   0.4406   0.4423   0.4513   0.4514
  0.4601   0.4601   0.4739   0.4879   0.5001   0.5080   0.5100   0.5148
  0.5182   0.5229   0.5317   0.5475   0.5477   0.5522   0.5609   0.5645
  0.5939   0.5986   0.6013   0.6102   0.6203   0.6333   0.6552   0.6697
  0.6855   0.6890   0.7216   0.7397   0.7593   0.7615   0.7757   0.7821
  0.7992   0.8105   0.8226   0.8459   0.8608   0.8747   0.9000   0.9169
  0.9263   0.9276   0.9499   0.9669   0.9679   0.9756   0.9801   0.9817
  1.0096   1.0421   1.0453   1.0523   1.0730   1.1274   1.1336   1.1564
  1.1590   1.1621   1.1883   1.2096   1.2252   1.2313   1.2477   1.2804
  1.2855   1.3265   1.3388   1.5409   1.5675   1.5833   1.6019   1.6340
  1.6549   1.6740   1.6884   1.6942   1.7036   1.7578   1.7596   1.7864
  1.7916   1.7949   1.8259   1.8955   1.8983   1.8988   1.9059   1.9314
  1.9402   1.9527   1.9728   2.0078   2.0173   2.0352   2.0750   2.0888
  2.1124   2.1194   2.2072   2.3254   2.3533   2.3536   2.4335   2.4347
  2.4869   2.4912   2.4926   2.5042   2.5080   2.5191   2.6042   2.7755
  2.7813   2.7841   2.8646   2.8657   3.0515   3.0551   3.0573   3.0868
  3.0942   3.1118   3.4493  18.8304  18.8983  19.7128  56.3413
 --------------------------------------------------------------
 
          Ground-State Mulliken Net Atomic Charges

     Atom                 Charge (a.u.)
  ----------------------------------------
      1 H                     0.134201
      2 Si                   -0.465060
      3 C                     0.485599
      4 H                    -0.162596
      5 H                    -0.134282
      6 H                    -0.126131
      7 C                     0.576393
      8 H                    -0.123691
      9 H                    -0.106082
     10 H                    -0.123684
     11 C                     0.485593
     12 H                    -0.126125
     13 H                    -0.162587
     14 H                    -0.134285
     15 I                     0.346283
     16 C                    -0.252481
     17 N                    -0.111064
  ----------------------------------------
  Sum of atomic charges =     0.000000

 -----------------------------------------------------------------
                    Cartesian Multipole Moments
 -----------------------------------------------------------------
    Charge (ESU x 10^10)
                -0.0000
    Dipole Moment (Debye)
         X      -5.5371      Y      -0.0000      Z       0.5917
       Tot       5.5686
    Quadrupole Moments (Debye-Ang)
        XX     -89.7961     XY      -0.0002     YY     -73.0281
        XZ       4.2281     YZ       0.0000     ZZ     -73.6313
    Octopole Moments (Debye-Ang^2)
       XXX     -54.0259    XXY      -0.0011    XYY      23.1494
       YYY      -0.0025    XXZ      17.7069    XYZ      -0.0002
       YYZ       7.7863    XZZ      20.7837    YZZ       0.0002
       ZZZ      12.8655
    Hexadecapole Moments (Debye-Ang^3)
      XXXX   -3624.7691   XXXY      -0.0164   XXYY    -575.0560
      XYYY      -0.0050   YYYY    -360.1472   XXXZ     140.3724
      XXYZ       0.0024   XYYZ      -2.3559   YYYZ      -0.0005
      XXZZ    -579.2287   XYZZ      -0.0046   YYZZ    -113.9026
      XZZZ      25.8470   YZZZ      -0.0009   ZZZZ    -316.3253
 -----------------------------------------------------------------
 Calculating analytic gradient of the SCF energy
 Gradient of SCF Energy
            1           2           3           4           5           6
    1  -0.0007777   0.0003667  -0.0000057   0.0002494  -0.0000097  -0.0002482
    2   0.0000002  -0.0000001   0.0000654  -0.0000456  -0.0002543   0.0000133
    3  -0.0000634   0.0005093   0.0000215  -0.0001841   0.0001618  -0.0001785
            7           8           9          10          11          12
    1  -0.0000065  -0.0000227  -0.0002226  -0.0000228  -0.0000058  -0.0002483
    2  -0.0000001  -0.0002417   0.0000001   0.0002417  -0.0000651  -0.0000133
    3  -0.0001964   0.0002003  -0.0001664   0.0002003   0.0000213  -0.0001785
           13          14          15          16          17
    1   0.0002495  -0.0000097   0.0012475   0.0009304  -0.0014640
    2   0.0000456   0.0002541  -0.0000007   0.0000015  -0.0000009
    3  -0.0001841   0.0001619  -0.0002923  -0.0000249   0.0001920
 Max gradient component =       1.464E-03
 RMS gradient           =       3.592E-04
 Gradient time:  CPU 94.65 s  wall 6.06 s
 Geometry Optimization Parameters
   NAtoms,    NIC,     NZ,  NCons,   NDum,   NFix, NCnnct, MaxDiis
       17     109       0       0       0       0       0       0

 Cartesian Hessian Update
 Hessian updated using BFGS update


** GEOMETRY OPTIMIZATION IN DELOCALIZED INTERNAL COORDINATES **
   Searching for a Minimum

   Optimization Cycle:   3

                       Coordinates (Angstroms)
     ATOM                X               Y               Z
      1  H        -1.3518809017   -0.0000370667    0.9624502222
      2  Si       -2.5313791665   -0.0000083947    0.0225320101
      3  C        -2.4181966748   -1.5517280455   -1.0385460563
      4  H        -1.4931675137   -1.5624646976   -1.6345046400
      5  H        -2.4325448216   -2.4623572034   -0.4206066703
      6  H        -3.2676721409   -1.6062377630   -1.7373019692
      7  C        -4.0920511209   -0.0001848983    1.0755374838
      8  H        -4.1398582958   -0.8902645015    1.7208037421
      9  H        -4.9872156801   -0.0001572393    0.4338488600
     10  H        -4.1399352964    0.8897593133    1.7209848790
     11  C        -2.4183455618    1.5519225069   -1.0382525313
     12  H        -3.2678125682    1.6064727148   -1.7370155639
     13  H        -1.4933040722    1.5628691759   -1.6341885265
     14  H        -2.4328030425    2.4624323624   -0.4201404823
     15  I         1.2298711124    0.0000002475    0.2740143808
     16  C         3.1829242511    0.0000498619   -0.2605829699
     17  N         4.2994273577    0.0000423108   -0.5775696499
   Point Group: c1    Number of degrees of freedom:    45


   Energy is   -800.288806547

 Hessian updated using BFGS update

 36 Hessian modes will be used to form the next step
  Hessian Eigenvalues:
     0.002000    0.004971    0.004972    0.005080    0.008608    0.036097
     0.045957    0.045984    0.055474    0.055501    0.055766    0.056528
     0.056535    0.056679    0.146240    0.158710    0.159974    0.160008
     0.168698    0.174974    0.199728    0.200000    0.212646    0.212868
     0.213319    0.267496    0.348259    0.348355    0.348629    0.349069
     0.349141    0.349226    0.349393    0.349490    0.359940    1.213825

 Minimum search - taking simple RFO step
 Searching for Lamda that Minimizes Along All modes
 Value Taken    Lamda =  -0.00008763
 Step Taken.  Stepsize is  0.091787

                             Maximum     Tolerance    Cnvgd?
         Gradient           0.001506      0.000050      NO
         Displacement       0.050487      0.000050      NO
         Energy change     -0.000102      0.000000      NO


 New Cartesian Coordinates Obtained by Inverse Iteration

 Displacement from previous Coordinates is:  0.152911
 Adding empirical dispersion correction 
 ----------------------------------------------------------------
 Doing -D3(BJ) with
 s6  =   1.00000
 s8  =   1.98890
 a1  =   0.39810
 a2  =   4.42110
 ----------------------------------------------------------------
 -D3 energy without 3body term =     -0.0276128334 hartrees
 ----------------------------------------------------------------
             Standard Nuclear Orientation (Angstroms)
    I     Atom           X                Y                Z
 ----------------------------------------------------------------
    1      H      -1.3438799435    -0.0000687083     0.9592144687
    2      Si     -2.5251900597    -0.0000190495     0.0190721297
    3      C      -2.4114322451    -1.5519441711    -1.0406890279
    4      H      -1.4868597295    -1.5610432601    -1.6368312738
    5      H      -2.4233954839    -2.4619594411    -0.4222448019
    6      H      -3.2608573561    -1.6089487027    -1.7389118055
    7      C      -4.0811907800    -0.0001749847     1.0783259773
    8      H      -4.1264024270    -0.8900944593     1.7235033695
    9      H      -4.9788247000    -0.0001325604     0.4403958552
   10      H      -4.1264511617     0.8896036245     1.7236938607
   11      C      -2.4115352637     1.5521169426    -1.0403890305
   12      H      -3.2609506795     1.6091898565    -1.7386183402
   13      H      -1.4869519586     1.5614005300    -1.6365120408
   14      H      -2.4235810415     2.4620134139    -0.4217720489
   15      I       1.1897751878    -0.0000035833     0.2760211344
   16      C       3.1389576742    -0.0000106116    -0.2747193528
   17      N       4.2648258317     0.0001838480    -0.5580765550
 ----------------------------------------------------------------
 Molecular Point Group                 C1    NOp =  1
 Largest Abelian Subgroup              C1    NOp =  1
 Nuclear Repulsion Energy =         438.78289918 hartrees
 There are       40 alpha and       40 beta electrons
 Applying Cartesian multipole field
    Component          Value
    ---------          -----
     (2,0,0)        1.00000E-11
     (0,2,0)        2.00000E-11
     (0,0,2)       -3.00000E-11
 Nucleus-field energy     =     0.0000000198 hartrees
 Requested basis set is def2-SVPD
 There are 103 shells and 239 basis functions
 A cutoff of  1.0D-14 yielded   4916 shell pairs
 There are     26504 function pairs (     29956 Cartesian)
 Requested basis set is def2-SVPD
 Compound shells will be simplified
 There are 103 shells and 239 basis functions
 A cutoff of  1.0D-14 yielded   4916 shell pairs
 There are     26504 function pairs (     29956 Cartesian)
 Smallest overlap matrix eigenvalue = 1.46E-04
 Read the previous MOs as SCF guess

 -----------------------------------------------------------------------
  General SCF calculation program by
  Eric Jon Sundstrom, Paul Horn, Yuezhi Mao, Dmitri Zuev, Alec White,
  David Stuck, Shaama M.S., Shane Yost, Joonho Lee, David Small,
  Daniel Levine, Susi Lehtola, Hugh Burton, Evgeny Epifanovsky,
  Bang C. Huynh
 -----------------------------------------------------------------------
 Exchange:     0.2000 Hartree-Fock + 0.0800 Slater + 0.7200 B88
 Correlation:  0.1900 VWN1RPA + 0.8100 LYP
 Using Euler-Maclaurin-Lebedev (75,302) quadrature formula
 Dispersion:   Grimme D3
 A restricted SCF calculation will be
 performed using DIIS
 SCF converges when DIIS error is below 1.0e-09
 ---------------------------------------
  Cycle       Energy         DIIS error
 ---------------------------------------
    1    -800.2879106636      4.85e-04  
    2    -800.2887904834      3.48e-05  
    3    -800.2887994600      2.33e-05  
    4    -800.2888015139      1.91e-05  
    5    -800.2888036676      5.66e-06  
    6    -800.2888038687      1.75e-06  
    7    -800.2888038960      2.92e-07  
    8    -800.2888038969      5.61e-08  
    9    -800.2888038969      1.53e-08  
   10    -800.2888038969      4.24e-09  
   11    -800.2888038969      1.15e-09  
   12    -800.2888038969      2.21e-10  Convergence criterion met
 ---------------------------------------
 SCF time:   CPU 283.38s  wall 17.00s 
 SCF   energy =  -800.28880390
 Total energy =  -800.28880390
 
 --------------------------------------------------------------
 
                    Orbital Energies (a.u.)
 --------------------------------------------------------------
 
 Alpha MOs
 -- Occupied --
-66.1303 -14.3436 -10.2538 -10.1856 -10.1843 -10.1843  -6.9004  -5.2925
 -4.9303  -4.9109  -4.9108  -3.6554  -3.6540  -3.6540  -1.9779  -1.9714
 -1.9713  -1.9550  -1.9550  -0.9081  -0.7674  -0.7273  -0.6909  -0.6902
 -0.5155  -0.4883  -0.4372  -0.4270  -0.4269  -0.4104  -0.4101  -0.4005
 -0.3787  -0.3786  -0.3750  -0.3347  -0.3270  -0.3264  -0.2986  -0.2982
 -- Virtual --
 -0.0680  -0.0068  -0.0032  -0.0030   0.0120   0.0227   0.0263   0.0445
  0.0468   0.0537   0.0645   0.0712   0.0728   0.0791   0.0819   0.0842
  0.0914   0.1009   0.1040   0.1098   0.1118   0.1226   0.1301   0.1360
  0.1442   0.1500   0.1509   0.1703   0.1911   0.1945   0.1958   0.1974
  0.2110   0.2239   0.2291   0.2341   0.2409   0.2521   0.2632   0.2765
  0.2773   0.2859   0.2953   0.2987   0.3040   0.3062   0.3174   0.3219
  0.3260   0.3319   0.3323   0.3501   0.3509   0.3542   0.3582   0.3645
  0.3725   0.3767   0.3828   0.3828   0.3866   0.3897   0.4022   0.4069
  0.4148   0.4214   0.4326   0.4361   0.4409   0.4438   0.4512   0.4517
  0.4599   0.4600   0.4740   0.4883   0.5006   0.5083   0.5091   0.5166
  0.5181   0.5226   0.5299   0.5478   0.5485   0.5530   0.5625   0.5662
  0.5954   0.5992   0.6026   0.6111   0.6218   0.6354   0.6573   0.6691
  0.6848   0.6910   0.7252   0.7425   0.7629   0.7630   0.7760   0.7834
  0.7986   0.8118   0.8244   0.8461   0.8611   0.8749   0.9032   0.9188
  0.9263   0.9275   0.9520   0.9679   0.9685   0.9754   0.9806   0.9824
  1.0083   1.0422   1.0452   1.0530   1.0736   1.1321   1.1332   1.1568
  1.1580   1.1633   1.1889   1.2106   1.2267   1.2377   1.2444   1.2806
  1.2873   1.3278   1.3403   1.5424   1.5675   1.5829   1.6026   1.6337
  1.6552   1.6738   1.6877   1.6941   1.7036   1.7591   1.7607   1.7871
  1.7920   1.7949   1.8251   1.8952   1.8980   1.8993   1.9066   1.9312
  1.9406   1.9532   1.9731   2.0084   2.0171   2.0353   2.0746   2.0884
  2.1129   2.1196   2.2062   2.3251   2.3533   2.3536   2.4343   2.4354
  2.4869   2.4912   2.4928   2.5043   2.5081   2.5191   2.6041   2.7758
  2.7819   2.7844   2.8651   2.8670   3.0521   3.0553   3.0582   3.0867
  3.0940   3.1121   3.4503  18.8412  18.9148  19.7229  56.3499
 --------------------------------------------------------------
 
          Ground-State Mulliken Net Atomic Charges

     Atom                 Charge (a.u.)
  ----------------------------------------
      1 H                     0.116209
      2 Si                   -0.457588
      3 C                     0.491866
      4 H                    -0.162898
      5 H                    -0.134191
      6 H                    -0.127132
      7 C                     0.575971
      8 H                    -0.123276
      9 H                    -0.106936
     10 H                    -0.123272
     11 C                     0.491866
     12 H                    -0.127129
     13 H                    -0.162894
     14 H                    -0.134194
     15 I                     0.345519
     16 C                    -0.248535
     17 N                    -0.113388
  ----------------------------------------
  Sum of atomic charges =     0.000000

 -----------------------------------------------------------------
                    Cartesian Multipole Moments
 -----------------------------------------------------------------
    Charge (ESU x 10^10)
                -0.0000
    Dipole Moment (Debye)
         X      -5.6172      Y      -0.0002      Z       0.5605
       Tot       5.6451
    Quadrupole Moments (Debye-Ang)
        XX     -89.5825     XY      -0.0013     YY     -72.9887
        XZ       4.0572     YZ       0.0002     ZZ     -73.5341
    Octopole Moments (Debye-Ang^2)
       XXX     -49.4611    XXY      -0.0063    XYY      24.2278
       YYY      -0.0029    XXZ      16.7678    XYZ       0.0006
       YYZ       7.7018    XZZ      22.0735    YZZ       0.0000
       ZZZ      12.7151
    Hexadecapole Moments (Debye-Ang^3)
      XXXX   -3566.6327   XXXY      -0.0488   XXYY    -567.4688
      XYYY      -0.0151   YYYY    -359.8878   XXXZ     134.6814
      XXYZ       0.0051   XYYZ      -2.4413   YYYZ      -0.0003
      XXZZ    -570.6104   XYZZ      -0.0085   YYZZ    -113.8317
      XZZZ      24.9447   YZZZ      -0.0005   ZZZZ    -316.3366
 -----------------------------------------------------------------
 Calculating analytic gradient of the SCF energy
 Gradient of SCF Energy
            1           2           3           4           5           6
    1  -0.0000119   0.0003647  -0.0000268   0.0001246  -0.0000045  -0.0001093
    2  -0.0000001   0.0000002   0.0000368  -0.0000275  -0.0001382  -0.0000370
    3  -0.0000131   0.0001343  -0.0000109  -0.0000791   0.0000583  -0.0001136
            7           8           9          10          11          12
    1   0.0000470  -0.0000380  -0.0001152  -0.0000378  -0.0000267  -0.0001094
    2   0.0000002  -0.0000991  -0.0000001   0.0000990  -0.0000370   0.0000371
    3   0.0000056   0.0000966  -0.0001059   0.0000965  -0.0000104  -0.0001138
           13          14          15          16          17
    1   0.0001246  -0.0000046   0.0010603  -0.0007586  -0.0004782
    2   0.0000274   0.0001381   0.0000035  -0.0000080   0.0000047
    3  -0.0000792   0.0000582   0.0005257  -0.0014713   0.0010220
 Max gradient component =       1.471E-03
 RMS gradient           =       3.367E-04
 Gradient time:  CPU 87.81 s  wall 5.60 s
 Geometry Optimization Parameters
   NAtoms,    NIC,     NZ,  NCons,   NDum,   NFix, NCnnct, MaxDiis
       17     109       0       0       0       0       0       0

 Cartesian Hessian Update
 Hessian updated using BFGS update


** GEOMETRY OPTIMIZATION IN DELOCALIZED INTERNAL COORDINATES **
   Searching for a Minimum

   Optimization Cycle:   4

                       Coordinates (Angstroms)
     ATOM                X               Y               Z
      1  H        -1.3438799435   -0.0000687083    0.9592144687
      2  Si       -2.5251900597   -0.0000190495    0.0190721297
      3  C        -2.4114322451   -1.5519441711   -1.0406890279
      4  H        -1.4868597295   -1.5610432601   -1.6368312738
      5  H        -2.4233954839   -2.4619594411   -0.4222448019
      6  H        -3.2608573561   -1.6089487027   -1.7389118055
      7  C        -4.0811907800   -0.0001749847    1.0783259773
      8  H        -4.1264024270   -0.8900944593    1.7235033695
      9  H        -4.9788247000   -0.0001325604    0.4403958552
     10  H        -4.1264511617    0.8896036245    1.7236938607
     11  C        -2.4115352637    1.5521169426   -1.0403890305
     12  H        -3.2609506795    1.6091898565   -1.7386183402
     13  H        -1.4869519586    1.5614005300   -1.6365120408
     14  H        -2.4235810415    2.4620134139   -0.4217720489
     15  I         1.1897751878   -0.0000035833    0.2760211344
     16  C         3.1389576742   -0.0000106116   -0.2747193528
     17  N         4.2648258317    0.0001838480   -0.5580765550
   Point Group: c1    Number of degrees of freedom:    45


   Energy is   -800.288803897

 Hessian updated using BFGS update

 37 Hessian modes will be used to form the next step
  Hessian Eigenvalues:
     0.002000    0.004956    0.004971    0.005080    0.005913    0.035975
     0.045945    0.045957    0.055470    0.055501    0.055769    0.056524
     0.056535    0.056679    0.146163    0.158969    0.159914    0.160000
     0.160004    0.170337    0.197475    0.200000    0.206213    0.212646
     0.212952    0.214937    0.347134    0.348259    0.348369    0.348679
     0.349069    0.349152    0.349226    0.349401    0.349490    0.729201
     1.194759

 Minimum search - taking simple RFO step
 Searching for Lamda that Minimizes Along All modes
 Value Taken    Lamda =  -0.00011064
 Step Taken.  Stepsize is  0.037428

                             Maximum     Tolerance    Cnvgd?
         Gradient           0.007910      0.000050      NO
         Displacement       0.018975      0.000050      NO
         Energy change      0.000003      0.000000      NO


 New Cartesian Coordinates Obtained by Inverse Iteration

 Displacement from previous Coordinates is:  0.075353
 Adding empirical dispersion correction 
 ----------------------------------------------------------------
 Doing -D3(BJ) with
 s6  =   1.00000
 s8  =   1.98890
 a1  =   0.39810
 a2  =   4.42110
 ----------------------------------------------------------------
 -D3 energy without 3body term =     -0.0276667968 hartrees
 ----------------------------------------------------------------
             Standard Nuclear Orientation (Angstroms)
    I     Atom           X                Y                Z
 ----------------------------------------------------------------
    1      H      -1.3413593029    -0.0000958105     0.9557554500
    2      Si     -2.5239393360    -0.0000298807     0.0159878237
    3      C      -2.4107283703    -1.5517061209    -1.0427876754
    4      H      -1.4873621089    -1.5597393488    -1.6400047509
    5      H      -2.4205756365    -2.4610174365    -0.4240173312
    6      H      -3.2607911070    -1.6100372886    -1.7394393078
    7      C      -4.0763735171    -0.0001728411     1.0793180614
    8      H      -4.1194291483    -0.8898162223     1.7242924156
    9      H      -4.9756736461    -0.0001187713     0.4444269886
   10      H      -4.1194588056     0.8893254719     1.7244902829
   11      C      -2.4107988347     1.5518605134    -1.0424795226
   12      H      -3.2608512664     1.6102810338    -1.7391364014
   13      H      -1.4874227981     1.5600621877    -1.6396792882
   14      H      -2.4207088133     2.4610511906    -0.4235329586
   15      I       1.1759664011     0.0000144053     0.2799353818
   16      C       3.1351507255     0.0001395718    -0.2484193852
   17      N       4.2504114289     0.0001080295    -0.5732472646
 ----------------------------------------------------------------
 Molecular Point Group                 C1    NOp =  1
 Largest Abelian Subgroup              C1    NOp =  1
 Nuclear Repulsion Energy =         439.22692692 hartrees
 There are       40 alpha and       40 beta electrons
 Applying Cartesian multipole field
    Component          Value
    ---------          -----
     (2,0,0)        1.00000E-11
     (0,2,0)        2.00000E-11
     (0,0,2)       -3.00000E-11
 Nucleus-field energy     =     0.0000000197 hartrees
 Requested basis set is def2-SVPD
 There are 103 shells and 239 basis functions
 A cutoff of  1.0D-14 yielded   4920 shell pairs
 There are     26518 function pairs (     29971 Cartesian)
 Requested basis set is def2-SVPD
 Compound shells will be simplified
 There are 103 shells and 239 basis functions
 A cutoff of  1.0D-14 yielded   4920 shell pairs
 There are     26518 function pairs (     29971 Cartesian)
 Smallest overlap matrix eigenvalue = 1.46E-04
 Read the previous MOs as SCF guess

 -----------------------------------------------------------------------
  General SCF calculation program by
  Eric Jon Sundstrom, Paul Horn, Yuezhi Mao, Dmitri Zuev, Alec White,
  David Stuck, Shaama M.S., Shane Yost, Joonho Lee, David Small,
  Daniel Levine, Susi Lehtola, Hugh Burton, Evgeny Epifanovsky,
  Bang C. Huynh
 -----------------------------------------------------------------------
 Exchange:     0.2000 Hartree-Fock + 0.0800 Slater + 0.7200 B88
 Correlation:  0.1900 VWN1RPA + 0.8100 LYP
 Using Euler-Maclaurin-Lebedev (75,302) quadrature formula
 Dispersion:   Grimme D3
 A restricted SCF calculation will be
 performed using DIIS
 SCF converges when DIIS error is below 1.0e-09
 ---------------------------------------
  Cycle       Energy         DIIS error
 ---------------------------------------
    1    -800.2875379766      5.80e-04  
    2    -800.2888043899      4.75e-05  
    3    -800.2888079799      5.16e-05  
    4    -800.2888212554      3.17e-05  
    5    -800.2888272757      7.20e-06  
    6    -800.2888276309      2.84e-06  
    7    -800.2888277044      3.37e-07  
    8    -800.2888277056      6.77e-08  
    9    -800.2888277056      3.57e-08  
   10    -800.2888277056      5.09e-09  
   11    -800.2888277056      9.60e-10  Convergence criterion met
 ---------------------------------------
 SCF time:   CPU 265.57s  wall 17.00s 
 SCF   energy =  -800.28882771
 Total energy =  -800.28882771
 
 --------------------------------------------------------------
 
                    Orbital Energies (a.u.)
 --------------------------------------------------------------
 
 Alpha MOs
 -- Occupied --
-66.1306 -14.3434 -10.2535 -10.1857 -10.1844 -10.1844  -6.9001  -5.2928
 -4.9301  -4.9106  -4.9105  -3.6557  -3.6543  -3.6543  -1.9776  -1.9711
 -1.9710  -1.9547  -1.9547  -0.9075  -0.7667  -0.7277  -0.6913  -0.6907
 -0.5159  -0.4880  -0.4375  -0.4274  -0.4273  -0.4108  -0.4105  -0.4008
 -0.3780  -0.3779  -0.3748  -0.3349  -0.3273  -0.3268  -0.2984  -0.2980
 -- Virtual --
 -0.0682  -0.0065  -0.0037  -0.0031   0.0124   0.0228   0.0261   0.0448
  0.0469   0.0538   0.0643   0.0712   0.0728   0.0791   0.0820   0.0840
  0.0916   0.1009   0.1037   0.1097   0.1119   0.1225   0.1297   0.1360
  0.1443   0.1500   0.1515   0.1708   0.1909   0.1949   0.1958   0.1975
  0.2108   0.2248   0.2291   0.2346   0.2405   0.2522   0.2634   0.2762
  0.2774   0.2881   0.2954   0.2959   0.3048   0.3049   0.3171   0.3215
  0.3257   0.3317   0.3322   0.3500   0.3508   0.3537   0.3579   0.3641
  0.3724   0.3769   0.3820   0.3828   0.3862   0.3897   0.4028   0.4068
  0.4151   0.4216   0.4325   0.4368   0.4411   0.4455   0.4513   0.4514
  0.4598   0.4598   0.4771   0.4889   0.5003   0.5085   0.5095   0.5161
  0.5180   0.5225   0.5307   0.5474   0.5492   0.5523   0.5623   0.5655
  0.5954   0.5999   0.6031   0.6119   0.6223   0.6367   0.6580   0.6691
  0.6844   0.6922   0.7265   0.7402   0.7624   0.7638   0.7765   0.7833
  0.7981   0.8122   0.8244   0.8459   0.8612   0.8757   0.9038   0.9193
  0.9263   0.9271   0.9533   0.9681   0.9693   0.9754   0.9808   0.9823
  1.0083   1.0425   1.0446   1.0533   1.0738   1.1329   1.1331   1.1570
  1.1578   1.1634   1.1917   1.2096   1.2264   1.2311   1.2496   1.2808
  1.2886   1.3287   1.3408   1.5421   1.5668   1.5827   1.6016   1.6335
  1.6551   1.6736   1.6874   1.6941   1.7035   1.7595   1.7611   1.7878
  1.7931   1.7949   1.8248   1.8953   1.8982   1.8998   1.9071   1.9315
  1.9409   1.9532   1.9736   2.0091   2.0175   2.0356   2.0748   2.0887
  2.1135   2.1202   2.2058   2.3252   2.3534   2.3537   2.4344   2.4356
  2.4874   2.4917   2.4933   2.5048   2.5086   2.5194   2.6018   2.7767
  2.7828   2.7852   2.8643   2.8655   3.0526   3.0558   3.0588   3.0871
  3.0942   3.1126   3.4496  18.8440  18.9148  19.7202  56.3539
 --------------------------------------------------------------
 
          Ground-State Mulliken Net Atomic Charges

     Atom                 Charge (a.u.)
  ----------------------------------------
      1 H                     0.109364
      2 Si                   -0.456574
      3 C                     0.496515
      4 H                    -0.163025
      5 H                    -0.134666
      6 H                    -0.128674
      7 C                     0.579139
      8 H                    -0.123468
      9 H                    -0.108291
     10 H                    -0.123469
     11 C                     0.496514
     12 H                    -0.128672
     13 H                    -0.163023
     14 H                    -0.134670
     15 I                     0.351728
     16 C                    -0.256535
     17 N                    -0.112192
  ----------------------------------------
  Sum of atomic charges =     0.000000

 -----------------------------------------------------------------
                    Cartesian Multipole Moments
 -----------------------------------------------------------------
    Charge (ESU x 10^10)
                -0.0000
    Dipole Moment (Debye)
         X      -5.6549      Y      -0.0001      Z       0.5830
       Tot       5.6848
    Quadrupole Moments (Debye-Ang)
        XX     -89.3826     XY      -0.0004     YY     -72.9713
        XZ       4.2149     YZ       0.0001     ZZ     -73.5808
    Octopole Moments (Debye-Ang^2)
       XXX     -47.6387    XXY      -0.0033    XYY      24.5200
       YYY      -0.0047    XXZ      17.2376    XYZ       0.0002
       YYZ       7.5692    XZZ      22.1966    YZZ      -0.0006
       ZZZ      12.3956
    Hexadecapole Moments (Debye-Ang^3)
      XXXX   -3544.9229   XXXY      -0.0399   XXYY    -565.1570
      XYYY      -0.0218   YYYY    -359.5887   XXXZ     135.8455
      XXYZ       0.0024   XYYZ      -2.6672   YYYZ      -0.0017
      XXZZ    -569.2148   XYZZ      -0.0106   YYZZ    -113.9243
      XZZZ      24.2097   YZZZ      -0.0019   ZZZZ    -317.2813
 -----------------------------------------------------------------
 Calculating analytic gradient of the SCF energy
 Gradient of SCF Energy
            1           2           3           4           5           6
    1   0.0001802   0.0002496  -0.0000257  -0.0001032  -0.0000058   0.0001014
    2   0.0000003   0.0000001  -0.0000305   0.0000062   0.0000820  -0.0000262
    3   0.0001524  -0.0001631  -0.0000518   0.0000890  -0.0000826   0.0000562
            7           8           9          10          11          12
    1   0.0000078  -0.0000225   0.0000926  -0.0000224  -0.0000257   0.0001015
    2   0.0000002   0.0001127  -0.0000001  -0.0001127   0.0000302   0.0000263
    3   0.0001052  -0.0000720   0.0000432  -0.0000720  -0.0000514   0.0000560
           13          14          15          16          17
    1  -0.0001032  -0.0000059  -0.0004448  -0.0005986   0.0006246
    2  -0.0000063  -0.0000819  -0.0000021   0.0000043  -0.0000025
    3   0.0000888  -0.0000828  -0.0002059   0.0008884  -0.0006974
 Max gradient component =       8.884E-04
 RMS gradient           =       2.244E-04
 Gradient time:  CPU 87.94 s  wall 5.61 s
 Geometry Optimization Parameters
   NAtoms,    NIC,     NZ,  NCons,   NDum,   NFix, NCnnct, MaxDiis
       17     109       0       0       0       0       0       0

 Cartesian Hessian Update
 Hessian updated using BFGS update


** GEOMETRY OPTIMIZATION IN DELOCALIZED INTERNAL COORDINATES **
   Searching for a Minimum

   Optimization Cycle:   5

                       Coordinates (Angstroms)
     ATOM                X               Y               Z
      1  H        -1.3413593029   -0.0000958105    0.9557554500
      2  Si       -2.5239393360   -0.0000298807    0.0159878237
      3  C        -2.4107283703   -1.5517061209   -1.0427876754
      4  H        -1.4873621089   -1.5597393488   -1.6400047509
      5  H        -2.4205756365   -2.4610174365   -0.4240173312
      6  H        -3.2607911070   -1.6100372886   -1.7394393078
      7  C        -4.0763735171   -0.0001728411    1.0793180614
      8  H        -4.1194291483   -0.8898162223    1.7242924156
      9  H        -4.9756736461   -0.0001187713    0.4444269886
     10  H        -4.1194588056    0.8893254719    1.7244902829
     11  C        -2.4107988347    1.5518605134   -1.0424795226
     12  H        -3.2608512664    1.6102810338   -1.7391364014
     13  H        -1.4874227981    1.5600621877   -1.6396792882
     14  H        -2.4207088133    2.4610511906   -0.4235329586
     15  I         1.1759664011    0.0000144053    0.2799353818
     16  C         3.1351507255    0.0001395718   -0.2484193852
     17  N         4.2504114289    0.0001080295   -0.5732472646
   Point Group: c1    Number of degrees of freedom:    45


   Energy is   -800.288827706

 Hessian updated using BFGS update

 40 Hessian modes will be used to form the next step
  Hessian Eigenvalues:
     0.002000    0.004961    0.004971    0.005080    0.007256    0.035897
     0.045896    0.045957    0.055473    0.055501    0.055763    0.056525
     0.056535    0.056679    0.145929    0.146164    0.157261    0.159550
     0.160000    0.160000    0.160010    0.170228    0.196947    0.199275
     0.200000    0.200000    0.212646    0.212828    0.213792    0.348259
     0.348346    0.348531    0.349069    0.349137    0.349226    0.349361
     0.349490    0.350837    0.975041    1.198924

 Minimum search - taking simple RFO step
 Searching for Lamda that Minimizes Along All modes
 Value Taken    Lamda =  -0.00004138
 Step Taken.  Stepsize is  0.053440

                             Maximum     Tolerance    Cnvgd?
         Gradient           0.003727      0.000050      NO
         Displacement       0.030227      0.000050      NO
         Energy change     -0.000024      0.000000      NO


 New Cartesian Coordinates Obtained by Inverse Iteration

 Displacement from previous Coordinates is:  0.102593
 Adding empirical dispersion correction 
 ----------------------------------------------------------------
 Doing -D3(BJ) with
 s6  =   1.00000
 s8  =   1.98890
 a1  =   0.39810
 a2  =   4.42110
 ----------------------------------------------------------------
 -D3 energy without 3body term =     -0.0275391822 hartrees
 ----------------------------------------------------------------
             Standard Nuclear Orientation (Angstroms)
    I     Atom           X                Y                Z
 ----------------------------------------------------------------
    1      H      -1.3441719398    -0.0000875920     0.9530189230
    2      Si     -2.5280533356    -0.0000268044     0.0157490182
    3      C      -2.4174770921    -1.5517167313    -1.0437411745
    4      H      -1.4955987474    -1.5602941696    -1.6436680221
    5      H      -2.4263429415    -2.4612410510    -0.4249282776
    6      H      -3.2697045668    -1.6091601308    -1.7381215627
    7      C      -4.0800645269    -0.0001736369     1.0800583348
    8      H      -4.1224787684    -0.8899680222     1.7252535341
    9      H      -4.9800114356    -0.0001230253     0.4458367948
   10      H      -4.1225151366     0.8894792014     1.7254464504
   11      C      -2.4175573369     1.5518768693    -1.0434359385
   12      H      -3.2697759276     1.6094024672    -1.7378203775
   13      H      -1.4956688669     1.5606279242    -1.6433447326
   14      H      -2.4264900314     2.4612801411    -0.4244462602
   15      I       1.2019400075     0.0000092892     0.2767610049
   16      C       3.1602211496     0.0000829375    -0.2514730830
   17      N       4.2798053605     0.0001410171    -0.5596821134
 ----------------------------------------------------------------
 Molecular Point Group                 C1    NOp =  1
 Largest Abelian Subgroup              C1    NOp =  1
 Nuclear Repulsion Energy =         438.09350969 hartrees
 There are       40 alpha and       40 beta electrons
 Applying Cartesian multipole field
    Component          Value
    ---------          -----
     (2,0,0)        1.00000E-11
     (0,2,0)        2.00000E-11
     (0,0,2)       -3.00000E-11
 Nucleus-field energy     =     0.0000000199 hartrees
 Requested basis set is def2-SVPD
 There are 103 shells and 239 basis functions
 A cutoff of  1.0D-14 yielded   4916 shell pairs
 There are     26504 function pairs (     29956 Cartesian)
 Requested basis set is def2-SVPD
 Compound shells will be simplified
 There are 103 shells and 239 basis functions
 A cutoff of  1.0D-14 yielded   4916 shell pairs
 There are     26504 function pairs (     29956 Cartesian)
 Smallest overlap matrix eigenvalue = 1.46E-04
 Read the previous MOs as SCF guess

 -----------------------------------------------------------------------
  General SCF calculation program by
  Eric Jon Sundstrom, Paul Horn, Yuezhi Mao, Dmitri Zuev, Alec White,
  David Stuck, Shaama M.S., Shane Yost, Joonho Lee, David Small,
  Daniel Levine, Susi Lehtola, Hugh Burton, Evgeny Epifanovsky,
  Bang C. Huynh
 -----------------------------------------------------------------------
 Exchange:     0.2000 Hartree-Fock + 0.0800 Slater + 0.7200 B88
 Correlation:  0.1900 VWN1RPA + 0.8100 LYP
 Using Euler-Maclaurin-Lebedev (75,302) quadrature formula
 Dispersion:   Grimme D3
 A restricted SCF calculation will be
 performed using DIIS
 SCF converges when DIIS error is below 1.0e-09
 ---------------------------------------
  Cycle       Energy         DIIS error
 ---------------------------------------
    1    -800.2886270709      2.41e-04  
    2    -800.2888431715      1.74e-05  
    3    -800.2888439192      1.84e-05  
    4    -800.2888457410      1.10e-05  
    5    -800.2888464135      3.69e-06  
    6    -800.2888465151      9.57e-07  
    7    -800.2888465227      1.12e-07  
    8    -800.2888465229      3.15e-08  
    9    -800.2888465229      1.63e-08  
   10    -800.2888465229      1.55e-09  
   11    -800.2888465229      3.12e-10  Convergence criterion met
 ---------------------------------------
 SCF time:   CPU 270.06s  wall 17.00s 
 SCF   energy =  -800.28884652
 Total energy =  -800.28884652
 
 --------------------------------------------------------------
 
                    Orbital Energies (a.u.)
 --------------------------------------------------------------
 
 Alpha MOs
 -- Occupied --
-66.1301 -14.3438 -10.2541 -10.1854 -10.1842 -10.1842  -6.9005  -5.2923
 -4.9305  -4.9110  -4.9109  -3.6552  -3.6538  -3.6538  -1.9780  -1.9715
 -1.9714  -1.9551  -1.9551  -0.9081  -0.7671  -0.7273  -0.6910  -0.6903
 -0.5151  -0.4884  -0.4373  -0.4270  -0.4270  -0.4104  -0.4102  -0.4005
 -0.3785  -0.3785  -0.3750  -0.3346  -0.3269  -0.3264  -0.2988  -0.2984
 -- Virtual --
 -0.0689  -0.0063  -0.0037  -0.0033   0.0122   0.0226   0.0261   0.0446
  0.0469   0.0537   0.0645   0.0714   0.0729   0.0792   0.0817   0.0842
  0.0913   0.1004   0.1038   0.1098   0.1119   0.1226   0.1293   0.1360
  0.1441   0.1492   0.1508   0.1706   0.1907   0.1947   0.1959   0.1969
  0.2109   0.2240   0.2292   0.2342   0.2408   0.2523   0.2633   0.2765
  0.2772   0.2870   0.2952   0.2974   0.3043   0.3049   0.3174   0.3214
  0.3256   0.3318   0.3323   0.3501   0.3509   0.3538   0.3583   0.3637
  0.3728   0.3762   0.3822   0.3830   0.3863   0.3897   0.4023   0.4074
  0.4146   0.4220   0.4326   0.4360   0.4408   0.4438   0.4514   0.4514
  0.4598   0.4599   0.4752   0.4884   0.5003   0.5082   0.5097   0.5156
  0.5181   0.5227   0.5312   0.5473   0.5484   0.5525   0.5617   0.5653
  0.5945   0.5993   0.6021   0.6107   0.6216   0.6349   0.6564   0.6694
  0.6847   0.6902   0.7246   0.7402   0.7607   0.7627   0.7755   0.7828
  0.7988   0.8114   0.8234   0.8459   0.8611   0.8751   0.9024   0.9183
  0.9264   0.9273   0.9518   0.9679   0.9680   0.9755   0.9802   0.9819
  1.0092   1.0423   1.0448   1.0531   1.0736   1.1305   1.1333   1.1569
  1.1579   1.1631   1.1900   1.2099   1.2260   1.2327   1.2472   1.2808
  1.2870   1.3283   1.3401   1.5418   1.5670   1.5830   1.6016   1.6337
  1.6548   1.6737   1.6876   1.6941   1.7034   1.7588   1.7605   1.7872
  1.7922   1.7950   1.8254   1.8954   1.8983   1.8995   1.9068   1.9317
  1.9408   1.9527   1.9734   2.0087   2.0176   2.0353   2.0750   2.0888
  2.1132   2.1202   2.2063   2.3252   2.3533   2.3536   2.4340   2.4351
  2.4873   2.4916   2.4931   2.5047   2.5085   2.5193   2.6027   2.7765
  2.7825   2.7850   2.8644   2.8655   3.0521   3.0556   3.0583   3.0870
  3.0942   3.1123   3.4495  18.8369  18.9046  19.7146  56.3484
 --------------------------------------------------------------
 
          Ground-State Mulliken Net Atomic Charges

     Atom                 Charge (a.u.)
  ----------------------------------------
      1 H                     0.119797
      2 Si                   -0.460930
      3 C                     0.491921
      4 H                    -0.162437
      5 H                    -0.134777
      6 H                    -0.127858
      7 C                     0.578821
      8 H                    -0.123388
      9 H                    -0.107823
     10 H                    -0.123387
     11 C                     0.491921
     12 H                    -0.127855
     13 H                    -0.162436
     14 H                    -0.134779
     15 I                     0.349124
     16 C                    -0.253525
     17 N                    -0.112388
  ----------------------------------------
  Sum of atomic charges =     0.000000

 -----------------------------------------------------------------
                    Cartesian Multipole Moments
 -----------------------------------------------------------------
    Charge (ESU x 10^10)
                 0.0000
    Dipole Moment (Debye)
         X      -5.6160      Y      -0.0002      Z       0.5645
       Tot       5.6443
    Quadrupole Moments (Debye-Ang)
        XX     -89.6405     XY      -0.0008     YY     -72.9952
        XZ       4.1330     YZ       0.0001     ZZ     -73.5696
    Octopole Moments (Debye-Ang^2)
       XXX     -51.4520    XXY      -0.0046    XYY      23.8202
       YYY      -0.0042    XXZ      16.9666    XYZ       0.0004
[...]
 IR Intens:       11.650                 11.530                 17.434
 Raman Active:       YES                    YES                    YES
               X      Y      Z        X      Y      Z        X      Y      Z
 H         -0.000  0.308  0.001   -0.234 -0.001  0.211    0.003 -0.311 -0.003
 Si         0.000  0.163  0.000   -0.123 -0.000  0.108    0.001 -0.060 -0.001
 C          0.057 -0.166 -0.151   -0.022 -0.137 -0.033    0.076  0.036  0.019
 H          0.027 -0.395 -0.218    0.002  0.115  0.001   -0.020 -0.239 -0.171
 H         -0.024 -0.104 -0.060    0.111 -0.311 -0.273   -0.133  0.092  0.065
 H          0.004 -0.250 -0.108    0.079 -0.072 -0.130   -0.135  0.214  0.190
 C         -0.000  0.071  0.000    0.237  0.001 -0.111   -0.001  0.114 -0.000
 H          0.252 -0.071 -0.131    0.333 -0.010 -0.111    0.382 -0.111 -0.205
 H         -0.000 -0.097 -0.000    0.242  0.000 -0.104   -0.004 -0.178  0.002
 H         -0.252 -0.072  0.131    0.332  0.011 -0.110   -0.379 -0.113  0.205
 C         -0.057 -0.167  0.150   -0.022  0.137 -0.031   -0.077  0.037 -0.016
 H         -0.004 -0.251  0.107    0.079  0.072 -0.129    0.136  0.210 -0.189
 H         -0.027 -0.396  0.215    0.002 -0.115  0.000    0.019 -0.250  0.171
 H          0.024 -0.105  0.060    0.111  0.313 -0.270    0.136  0.101 -0.072
 I          0.000  0.000  0.000    0.000  0.000 -0.000   -0.000  0.000 -0.000
 C         -0.000 -0.001 -0.000    0.000 -0.000  0.000    0.000 -0.000  0.000
 N         -0.000  0.000  0.000    0.000  0.000 -0.000   -0.000  0.000  0.000
 TransDip   0.000  0.109  0.000   -0.081 -0.000  0.073    0.002 -0.134 -0.002

 Mode:                22                     23                     24
 Frequency:       837.50                 856.01                 910.03
 Force Cnst:      0.5990                 0.6795                 0.6393
 Red. Mass:       1.4494                 1.5740                 1.3102
 IR Active:          YES                    YES                    YES
 IR Intens:       23.988                 59.752                157.952
 Raman Active:       YES                    YES                    YES
               X      Y      Z        X      Y      Z        X      Y      Z
 H          0.204  0.005 -0.195   -0.049  0.001 -0.054   -0.003  0.809  0.006
 Si         0.044  0.001 -0.051   -0.069  0.000 -0.060    0.000 -0.079 -0.001
 C         -0.039 -0.047  0.094    0.081 -0.014  0.057   -0.031  0.042 -0.044
 H         -0.036  0.355  0.071   -0.053 -0.135 -0.226    0.034  0.008  0.116
 H          0.108 -0.312 -0.304   -0.122 -0.109 -0.138    0.006  0.181  0.182
 H          0.052  0.250 -0.004   -0.130  0.362  0.206    0.020 -0.196 -0.066
 C         -0.055 -0.001 -0.034    0.058 -0.000  0.088    0.000  0.053  0.000
 H          0.069  0.020  0.035   -0.231 -0.044 -0.061    0.152 -0.052 -0.098
 H         -0.241  0.002  0.151    0.394  0.001 -0.257    0.001 -0.095 -0.001
 H          0.080 -0.017  0.029   -0.232  0.044 -0.060   -0.154 -0.053  0.098
 C         -0.037  0.045  0.095    0.081  0.014  0.057    0.031  0.042  0.044
 H          0.049 -0.256 -0.001   -0.129 -0.364  0.203   -0.019 -0.195  0.064
 H         -0.036 -0.349  0.064   -0.053  0.136 -0.224   -0.034  0.007 -0.115
 H          0.104  0.312 -0.299   -0.121  0.110 -0.137   -0.005  0.182 -0.181
 I         -0.000 -0.000 -0.000    0.000  0.000 -0.000    0.000 -0.000 -0.000
 C         -0.000  0.000  0.000   -0.001  0.000 -0.000    0.000  0.001  0.000
 N         -0.000 -0.000  0.000   -0.001 -0.000  0.000    0.000 -0.000 -0.000
 TransDip   0.100  0.002 -0.121   -0.186  0.000 -0.163    0.002 -0.403 -0.003

 Mode:                25                     26                     27
 Frequency:       926.91                1259.56                1259.59
 Force Cnst:      0.6382                 1.1828                 1.1834
 Red. Mass:       1.2606                 1.2654                 1.2660
 IR Active:          YES                    YES                    YES
 IR Intens:      154.669                 33.169                 33.241
 Raman Active:       YES                    YES                    YES
               X      Y      Z        X      Y      Z        X      Y      Z
 H          0.626  0.006 -0.565   -0.009 -0.015  0.008    0.011 -0.011 -0.010
 Si        -0.051 -0.001  0.051    0.006  0.010 -0.005   -0.008  0.008  0.007
 C          0.049  0.005 -0.008    0.005 -0.040 -0.024    0.017 -0.093 -0.064
 H         -0.002 -0.182 -0.107    0.043  0.160  0.070    0.115  0.371  0.180
 H         -0.084  0.034  0.019   -0.027  0.085  0.150   -0.083  0.215  0.364
 H         -0.072  0.049  0.090   -0.068  0.161  0.036   -0.191  0.371  0.112
 C         -0.018  0.000 -0.070   -0.068 -0.003  0.030    0.090 -0.002 -0.040
 H          0.198  0.019  0.013    0.255 -0.100 -0.041   -0.337  0.136  0.067
 H         -0.204 -0.001  0.124    0.190  0.013 -0.210   -0.250  0.008  0.277
 H          0.197 -0.020  0.014    0.256  0.105 -0.052   -0.336 -0.134  0.056
 C          0.049 -0.005 -0.008   -0.018 -0.102  0.067    0.000 -0.015  0.006
 H         -0.072 -0.051  0.091    0.203  0.403 -0.115    0.016  0.059 -0.006
 H         -0.002  0.183 -0.107   -0.123  0.403 -0.190   -0.012  0.058 -0.021
 H         -0.084 -0.032  0.017    0.087  0.234 -0.390    0.004  0.026 -0.050
 I         -0.000 -0.000  0.000    0.000 -0.000  0.000   -0.000 -0.000 -0.000
 C         -0.001  0.000 -0.002   -0.000  0.000 -0.000    0.000  0.000  0.000
 N         -0.000  0.000  0.000    0.000 -0.000  0.000   -0.000 -0.000 -0.000
 TransDip  -0.287 -0.003  0.276    0.083  0.147 -0.075   -0.109  0.111  0.099

 Mode:                28                     29                     30
 Frequency:      1268.15                1420.16                1422.25
 Force Cnst:      1.1703                 1.2511                 1.2519
 Red. Mass:       1.2351                 1.0529                 1.0504
 IR Active:          YES                    YES                    YES
 IR Intens:        6.194                  0.013                  0.012
 Raman Active:       YES                    YES                    YES
               X      Y      Z        X      Y      Z        X      Y      Z
 H          0.009 -0.000  0.012    0.000  0.000  0.000    0.000  0.008 -0.000
 Si         0.002  0.000  0.002   -0.000 -0.000  0.000    0.000  0.001 -0.000
 C          0.010 -0.068 -0.047    0.021  0.018 -0.021    0.038 -0.006  0.016
 H          0.088  0.283  0.146    0.125  0.040  0.235   -0.057  0.321 -0.192
 H         -0.052  0.167  0.281   -0.145 -0.079 -0.187   -0.476  0.017 -0.056
 H         -0.144  0.286  0.082   -0.254 -0.192  0.232    0.016 -0.268  0.035
 C         -0.077 -0.000  0.032   -0.000 -0.041 -0.000    0.001  0.016  0.001
 H          0.306 -0.115 -0.050    0.262  0.037  0.162   -0.116 -0.024 -0.079
 H          0.223  0.001 -0.248    0.001  0.470  0.001   -0.005 -0.201  0.006
 H          0.306  0.115 -0.049   -0.262  0.035 -0.158    0.113 -0.006  0.054
 C          0.010  0.067 -0.046   -0.021  0.018  0.022   -0.039 -0.007 -0.017
 H         -0.142 -0.284  0.079    0.256 -0.190 -0.235   -0.027 -0.270 -0.029
 H          0.088 -0.281  0.143   -0.126  0.040 -0.239    0.064  0.330  0.212
 H         -0.051 -0.168  0.278    0.142 -0.081  0.188    0.488  0.022  0.050
 I         -0.000  0.000 -0.000   -0.000 -0.000  0.000   -0.000  0.000 -0.000
 C          0.000  0.000  0.000   -0.000  0.000  0.000    0.000 -0.000  0.000
 N         -0.000 -0.000 -0.000    0.000 -0.000  0.000   -0.000 -0.000 -0.000
 TransDip   0.056  0.000  0.057   -0.000  0.004 -0.000    0.000  0.004 -0.000

 Mode:                31                     32                     33
 Frequency:      1422.55                1431.90                1432.20
 Force Cnst:      1.2523                 1.2647                 1.2648
 Red. Mass:       1.0503                 1.0469                 1.0466
 IR Active:          YES                    YES                    YES
 IR Intens:        0.068                  2.623                  2.594
 Raman Active:       YES                    YES                    YES
               X      Y      Z        X      Y      Z        X      Y      Z
 H         -0.009  0.000  0.008   -0.001  0.031  0.001    0.023  0.001 -0.022
 Si        -0.000  0.000  0.000    0.000 -0.008 -0.000   -0.006 -0.000  0.005
 C          0.011 -0.014  0.022   -0.002 -0.015  0.024   -0.032 -0.018  0.018
 H         -0.112  0.170 -0.266   -0.133  0.083 -0.288   -0.130 -0.139 -0.231
 H         -0.206  0.063  0.083   -0.066  0.079  0.140    0.290  0.097  0.242
 H          0.167 -0.047 -0.122    0.230  0.051 -0.188    0.289  0.294 -0.277
 C         -0.018  0.001 -0.045   -0.000 -0.041 -0.001    0.007 -0.001  0.011
 H          0.032  0.301  0.409    0.300  0.041  0.178   -0.007 -0.081 -0.110
 H          0.178 -0.009 -0.218    0.002  0.516 -0.001   -0.056  0.016  0.069
 H          0.043 -0.305  0.413   -0.299  0.035 -0.168   -0.026  0.084 -0.120
 C          0.009  0.013  0.021    0.004 -0.016 -0.025   -0.031  0.017  0.017
 H          0.164  0.033 -0.122   -0.248  0.067  0.206    0.273 -0.289 -0.266
 H         -0.107 -0.148 -0.252    0.141  0.073  0.303   -0.121  0.146 -0.210
 H         -0.177 -0.061  0.084    0.049  0.086 -0.155    0.294 -0.093  0.232
 I          0.000  0.000  0.000   -0.000  0.000 -0.000    0.000  0.000  0.000
 C         -0.000 -0.000 -0.000    0.000 -0.000  0.000   -0.000 -0.000 -0.000
 N          0.000  0.000  0.000   -0.000  0.000 -0.000    0.000  0.000  0.000
 TransDip  -0.006 -0.000  0.005   -0.001  0.052  0.001    0.041  0.002 -0.031

 Mode:                34                     35                     36
 Frequency:      1438.89                2158.64                2299.93
 Force Cnst:      1.2743                 2.8527                39.8000
 Red. Mass:       1.0446                 1.0391                12.7704
 IR Active:          YES                    YES                    YES
 IR Intens:        8.861                160.337                 11.769
 Raman Active:       YES                    YES                    YES
               X      Y      Z        X      Y      Z        X      Y      Z
 H         -0.006 -0.000 -0.004    0.672 -0.002  0.740   -0.009  0.000 -0.009
 Si        -0.006  0.000 -0.007   -0.023  0.000 -0.025    0.000 -0.000  0.000
 C         -0.024  0.011 -0.019   -0.001  0.000 -0.000    0.000  0.000  0.000
 H          0.096 -0.272  0.254   -0.004 -0.002  0.000   -0.001 -0.001 -0.001
 H          0.363 -0.053 -0.032    0.001  0.002 -0.004    0.000 -0.000  0.000
 H         -0.113  0.168  0.062   -0.000 -0.007 -0.006    0.000 -0.000 -0.001
 C         -0.012  0.000 -0.031   -0.000  0.000 -0.001    0.000  0.000 -0.000
 H          0.018  0.227  0.309   -0.001  0.004 -0.001    0.000 -0.000  0.000
 H          0.141 -0.000 -0.168   -0.009 -0.000  0.002   -0.000  0.000  0.000
 H          0.019 -0.230  0.308   -0.001 -0.004 -0.001    0.000  0.000  0.000
 C         -0.023 -0.011 -0.019   -0.001 -0.000 -0.000    0.000 -0.000  0.000
 H         -0.112 -0.169  0.060   -0.000  0.007 -0.006    0.000  0.000 -0.001
 H          0.094  0.269  0.254   -0.004  0.002  0.000   -0.001  0.001 -0.001
 H          0.362  0.053 -0.031    0.001 -0.002 -0.004    0.000  0.000  0.000
 I          0.000 -0.000 -0.000   -0.000  0.000  0.000   -0.005 -0.000  0.002
 C          0.000  0.000 -0.000    0.001  0.000 -0.000    0.724  0.002 -0.303
 N         -0.000 -0.000  0.000   -0.001 -0.000  0.000   -0.571 -0.001  0.239
 TransDip   0.063 -0.000  0.071   -0.271  0.001 -0.301    0.102  0.000 -0.042

 Mode:                37                     38                     39
 Frequency:      3021.78                3022.49                3022.71
 Force Cnst:      5.5722                 5.5754                 5.5760
 Red. Mass:       1.0357                 1.0359                 1.0358
 IR Active:          YES                    YES                    YES
 IR Intens:        6.196                  7.188                  3.623
 Raman Active:       YES                    YES                    YES
               X      Y      Z        X      Y      Z        X      Y      Z
 H         -0.001 -0.000  0.001    0.000 -0.001  0.000    0.000  0.000  0.001
 Si         0.001  0.000 -0.000    0.000  0.001 -0.000    0.000 -0.000 -0.000
 C          0.000  0.005  0.003    0.002 -0.027 -0.020   -0.002  0.030  0.021
 H          0.055  0.002 -0.022   -0.341 -0.004  0.143    0.368  0.005 -0.154
 H         -0.008 -0.057  0.040    0.042  0.308 -0.215   -0.047 -0.342  0.237
 H         -0.049 -0.001 -0.055    0.276  0.008  0.307   -0.298 -0.009 -0.332
 C         -0.047 -0.000  0.016    0.001  0.001 -0.000    0.008 -0.000 -0.003
 H          0.066  0.449 -0.309   -0.002 -0.011  0.008   -0.012 -0.079  0.055
 H          0.412 -0.001  0.442   -0.005  0.000 -0.006   -0.069  0.000 -0.074
 H          0.066 -0.447 -0.312    0.001  0.002  0.001   -0.013  0.079  0.055
 C          0.000 -0.005  0.003   -0.002 -0.030  0.022   -0.002 -0.027  0.019
 H         -0.052  0.002 -0.058   -0.304  0.011 -0.338   -0.269  0.010 -0.300
 H          0.058 -0.002 -0.024    0.376 -0.003 -0.157    0.332 -0.003 -0.139
 H         -0.008  0.060  0.042   -0.047  0.338  0.239   -0.042  0.308  0.216
 I          0.000  0.000 -0.000   -0.000  0.000 -0.000   -0.000 -0.000 -0.000
 C          0.000  0.000 -0.000   -0.000  0.000 -0.000   -0.000 -0.000 -0.000
 N         -0.000 -0.000  0.000    0.000  0.000  0.000    0.000 -0.000  0.000
 TransDip  -0.073 -0.001  0.032    0.001 -0.086  0.003    0.009  0.004  0.060

 Mode:                40                     41                     42
 Frequency:      3102.18                3102.34                3103.88
 Force Cnst:      6.2437                 6.2435                 6.2465
 Red. Mass:       1.1012                 1.1010                 1.1005
 IR Active:          YES                    YES                    YES
 IR Intens:        0.728                  1.596                 30.165
 Raman Active:       YES                    YES                    YES
               X      Y      Z        X      Y      Z        X      Y      Z
 H          0.001  0.000 -0.002   -0.000  0.002  0.000    0.006 -0.000  0.007
 Si         0.000  0.000  0.000   -0.000  0.000  0.000   -0.001  0.000 -0.001
 C          0.021 -0.016  0.027   -0.048  0.022 -0.041   -0.034  0.018 -0.033
 H         -0.083 -0.002  0.044    0.250  0.002 -0.121    0.164  0.001 -0.081
 H          0.032  0.208 -0.134   -0.048 -0.291  0.186   -0.038 -0.240  0.153
 H         -0.207 -0.016 -0.234    0.371  0.027  0.425    0.284  0.022  0.326
 C         -0.026 -0.000 -0.066    0.001 -0.008  0.003   -0.021  0.000 -0.054
 H         -0.054 -0.276  0.179    0.011  0.063 -0.044   -0.044 -0.224  0.146
 H          0.427 -0.002  0.431   -0.022 -0.002 -0.022    0.349 -0.001  0.350
 H         -0.056  0.280  0.185   -0.006  0.034  0.026   -0.045  0.223  0.148
 C          0.026  0.018  0.031    0.046  0.020  0.038   -0.034 -0.018 -0.033
 H         -0.241  0.020 -0.274   -0.352  0.028 -0.403    0.281 -0.024  0.322
 H         -0.106  0.002  0.055   -0.243  0.000  0.117    0.162 -0.001 -0.080
 H          0.037 -0.235 -0.153    0.046 -0.270 -0.175   -0.038  0.236  0.153
 I          0.000  0.000 -0.000   -0.000  0.000  0.000   -0.000  0.000 -0.000
 C         -0.000 -0.000  0.000    0.000 -0.000 -0.000    0.000 -0.000 -0.000
 N          0.000  0.000 -0.000   -0.000  0.000  0.000   -0.000  0.000  0.000
 TransDip   0.026  0.002 -0.009   -0.001  0.040  0.001   -0.106  0.001 -0.140

 Mode:                43                     44                     45
 Frequency:      3107.97                3108.40                3108.89
 Force Cnst:      6.2677                 6.2690                 6.2697
 Red. Mass:       1.1013                 1.1012                 1.1010
 IR Active:          YES                    YES                    YES
 IR Intens:        4.629                 11.398                 16.974
 Raman Active:       YES                    YES                    YES
               X      Y      Z        X      Y      Z        X      Y      Z
 H          0.000  0.001 -0.000    0.000 -0.002 -0.000    0.002  0.000 -0.000
 Si        -0.000 -0.000  0.000   -0.000  0.001  0.000   -0.001 -0.000  0.000
 C          0.021  0.011 -0.011    0.038  0.029 -0.034   -0.050 -0.029  0.031
 H         -0.213  0.005  0.092   -0.421  0.010  0.180    0.514 -0.012 -0.221
 H         -0.014 -0.132  0.087   -0.041 -0.368  0.239    0.038  0.359 -0.234
 H         -0.031  0.000 -0.042    0.001  0.005 -0.015    0.052 -0.002  0.077
 C          0.000 -0.084 -0.000    0.000  0.037  0.000    0.002 -0.000  0.005
 H          0.095  0.515 -0.372   -0.042 -0.226  0.164    0.005  0.025 -0.017
 H         -0.001 -0.017 -0.001   -0.000  0.007 -0.000   -0.029  0.000 -0.030
 H         -0.095  0.511  0.375    0.042 -0.226 -0.166    0.005 -0.025 -0.017
 C         -0.022  0.011  0.012   -0.040  0.030  0.035   -0.049  0.028  0.031
 H          0.032 -0.000  0.043    0.000  0.005  0.017    0.052  0.001  0.076
 H          0.218  0.006 -0.094    0.434  0.012 -0.185    0.501  0.014 -0.216
 H          0.014 -0.135 -0.090    0.042 -0.375 -0.247    0.037 -0.347 -0.229
 I         -0.000  0.000  0.000   -0.000  0.000  0.000   -0.000 -0.000  0.000
 C          0.000  0.000 -0.000    0.000  0.000 -0.000    0.000 -0.000 -0.000
 N         -0.000 -0.000  0.000   -0.000 -0.000  0.000   -0.000 -0.000  0.000
 TransDip  -0.001 -0.069  0.000   -0.001  0.108  0.001   -0.110 -0.001  0.072

 STANDARD THERMODYNAMIC QUANTITIES AT   298.15 K  AND     1.00 ATM

   This Molecule has  0 Imaginary Frequencies
   Zero point vibrational energy:       78.860 kcal/mol

   Atom    1 Element H  Has Mass    1.00783
   Atom    2 Element Si Has Mass   27.97693
   Atom    3 Element C  Has Mass   12.00000
   Atom    4 Element H  Has Mass    1.00783
   Atom    5 Element H  Has Mass    1.00783
   Atom    6 Element H  Has Mass    1.00783
   Atom    7 Element C  Has Mass   12.00000
   Atom    8 Element H  Has Mass    1.00783
   Atom    9 Element H  Has Mass    1.00783
   Atom   10 Element H  Has Mass    1.00783
   Atom   11 Element C  Has Mass   12.00000
   Atom   12 Element H  Has Mass    1.00783
   Atom   13 Element H  Has Mass    1.00783
   Atom   14 Element H  Has Mass    1.00783
   Atom   15 Element I  Has Mass  126.90440
   Atom   16 Element C  Has Mass   12.00000
   Atom   17 Element N  Has Mass   14.00307
   Molecular Mass:   226.962700 amu
   Principal axes and moments of inertia in amu*Bohr^2:
                             1           2           3
    Eigenvalues --      562.39146  5001.85943  5021.68856
          X              -0.99999     0.00004    -0.00402
          Y               0.00002     0.99998     0.00573
          Z              -0.00402    -0.00573     0.99998
   Rotational Symmetry Number is   1
   The Molecule is an Asymmetric Top
   Translational Enthalpy:        0.889 kcal/mol
   Rotational Enthalpy:           0.889 kcal/mol
   Vibrational Enthalpy:         85.225 kcal/mol
   gas constant (RT):             0.592 kcal/mol
   Translational Entropy:        42.161  cal/mol.K
   Rotational Entropy:           31.025  cal/mol.K
   Vibrational Entropy:          49.759  cal/mol.K

   Total Enthalpy:               87.595 kcal/mol
   Total Entropy:               122.945  cal/mol.K

   Quasi-RRHO corrections using alpha = 4, and omega = 100 cm^-1
   QRRHO-Vib. Enthalpy:          83.542 kcal/mol
   QRRHO-Vib. Entropy:           41.022  cal/mol.K
   QRRHO-Total Enthalpy:         85.912 kcal/mol
   QRRHO-Total Entropy:         114.208  cal/mol.K
 Total job time:  3688.41s(wall), 12464.35s(cpu) 
 Wed Nov 13 02:19:29 2024

        *************************************************************
        *                                                           *
        *  Thank you very much for using Q-Chem.  Have a nice day.  *
        *                                                           *
        *************************************************************


