
Running Job 1 of 6 water_dimer_adiabatic_eda.in
qchem water_dimer_adiabatic_eda.in_1305396.0 /data/scratch/water_dimer_adiabatic_eda20241105142708/ 1
/opt/qchem/6.2.0/exe/qcprog.exe_s water_dimer_adiabatic_eda.in_1305396.0 /data/scratch/water_dimer_adiabatic_eda20241105142708/
                  Welcome to Q-Chem
     A Quantum Leap Into The Future Of Chemistry


 Q-Chem 6.2, Q-Chem, Inc., Pleasanton, CA (2024)

 E. Epifanovsky,  A. T. B. Gilbert,  Xintian Feng,  Joonho Lee,  Yuezhi Mao,  
 N. Mardirossian,  P. Pokhilko,  A. White,  M. Wormit,  M. P. Coons,  
 A. L. Dempwolff,  Zhengting Gan,  D. Hait,  P. R. Horn,  L. D. Jacobson,  
 I. Kaliman,  J. Kussmann,  A. W. Lange,  Ka Un Lao,  D. S. Levine,  Jie Liu,  
 S. C. McKenzie,  A. F. Morrison,  K. D. Nanda,  F. Plasser,  D. R. Rehn,  
 M. L. Vidal,  Zhi-Qiang You,  Ying Zhu,  Huseyin Aksu,  B. Alam,  
 B. Albrecht,  A. Aldossary,  E. Alguire,  J. H. Andersen,  
 J. E. Arias-Martinez,  V. Athavale,  D. Barton,  K. Begam,  A. Behn,  
 N. Bellonzi,  Y. A. Bernard,  E. J. Berquist,  H. Burton,  A. Carreras,  
 K. Carter-Fenk,  Mathew Chow,  Romit Chakraborty,  Chandrima Chakravarty,  
 Junhan Chen,  A. D. Chien,  K. D. Closser,  V. Cofer-Shabica,  L. Cunha,  
 S. Dasgupta,  Jia Deng,  Joseph Dickinson,  M. de Wergifosse,  
 M. Diedenhofen,  Hainam Do,  Wenjie Dou,  S. Ehlert,  Po-Tung Fang,  
 S. Fatehi,  Qingguo Feng,  Jonathan Fetherolf,  T. Friedhoff,  
 Thomas Froitzheim,  Sarai Folkestad,  B. Ganoe,  J. Gayvert,  Qinghui Ge,  
 G. Gidofalvi,  M. Gimferrer,  M. Goldey,  Montgomery Gray,  J. Gomes,  
 C. Gonzalez-Espinoza,  S. Gulania,  A. Gunina,  J. A. Gyamfi,  
 M. W. D. Hanson-Heine,  P. H. P. Harbach,  A. W. Hauser,  M. F. Herbst,  
 M. Hernandez Vera,  M. Hodecker,  Z. C. Holden,  S. Houck,  Xunkun Huang,  
 Kerwin Hui,  B. C. Huynh,  K. Ikeda,  M. Ivanov,  Nayanthara K. Jayadev,  
 Hyunjun Ji,  Zuxin Jin,  Hanjie Jiang,  Subrata Jana,  B. Kaduk,  
 S. Kaehler,  R. Kang,  K. Khistyaev,  Jaehoon Kim,  Yongbin Kim,  
 P. Klunzinger,  Z. Koczor-Benda,  Joong Hoon Koh,  D. Kosenkov,  
 Saikiran Kotaru,  L. Koulias,  T. Kowalczyk,  C. M. Krauter,  K. Kue,  
 A. Kunitsa,  T. Kus,  A. Landau,  K. V. Lawler,  D. Lefrancois,  S. Lehtola,  
 Rain Li,  Shaozhi Li,  Tao E. Li,  Yi-Pei Li,  Jiashu Liang,  M. Liebenthal,  
 Hung-Hsuan Lin,  You-Sheng Lin,  Fenglai Liu,  Kuan-Yu Liu,  Xiao Liu,  
 M. Loipersberger,  A. Luenser,  C. Malbon,  Aniket Mandal,  Manisha,  
 A. Manjanath,  P. Manohar,  E. Mansoor,  S. F. Manzer,  Shan-Ping Mao,  
 A. V. Marenich,  T. Markovich,  S. Mason,  F. Matz,  S. A. Maurer,  
 Samuel May,  Alexandra McIsaac,  P. F. McLaughlin,  M. F. S. J. Menger,  
 J.-M. Mewes,  S. A. Mewes,  P. Morgante,  Mohammad Mostafanejad,  
 Madhubani Mukherjee,  J. W. Mullinax,  Quyen Nguyen,  Avik Kumar Ojha,  
 K. J. Oosterbaan,  Eno Paenurk,  Xiaoliang Pan,  G. Paran,  V. Parravicini,  
 Alexander C. Paul,  Suranjan K. Paul,  F. Pavosevic,  Zheng Pei,  S. Prager,  
 E. I. Proynov,  E. Ramos,  B. Rana,  A. E. Rask,  A. Rettig,  R. M. Richard,  
 F. Rob,  E. Rossomme,  T. Scheele,  M. Scheurer,  M. Schneider,  
 P. E. Schneider,  Tim K. Schramm,  N. Sergueev,  S. M. Sharada,  
 Hengyuan Shen,  W. Skomorowski,  D. W. Small,  C. J. Stein,  
 Alistair J. Sterling,  Yingli Su,  Yu-Chuan Su,  E. J. Sundstrom,  
 J. Talbot,  Zhen Tao,  J. Thirman,  Hung-Yi Tsai,  T. Tsuchimochi,  
 N. M. Tubman,  C. Utku,  S. P. Veccham,  O. Vydrov,  Rahel Weiss,  
 J. Wenzel,  Jonathan Wong,  J. Witte,  H. Wu,  Yanze Wu,  A. Yamada,  
 Chou-Hsun Yang,  Kun Yao,  S. Yeganeh,  S. R. Yost,  Qi Yu,  A. Zech,  
 F. Zeller,  Chongxiao Zhao,  Igor Ying Zhang,  Xing Zhang,  Yu Zhang,  
 D. Zuev,  A. Aspuru-Guzik,  A. T. Bell,  N. A. Besley,  K. B. Bravaya,  
 B. R. Brooks,  D. Casanova,  Jeng-Da Chai,  Hsing-Ta Chen,  S. Coriani,  
 C. J. Cramer,  A. E. DePrince, III,  R. A. DiStasio Jr.,  A. Dreuw,  
 B. D. Dunietz,  T. R. Furlani,  W. A. Goddard III,  S. Grimme,  
 S. Hammes-Schiffer,  T. Head-Gordon,  W. J. Hehre,  Chao-Ping Hsu,  
 T.-C. Jagau,  Yousung Jung,  A. Klamt,  Jing Kong,  D. S. Lambrecht,  
 Xiangyuan Li,  WanZhen Liang,  N. J. Mayhall,  C. W. McCurdy,  J. B. Neaton,  
 T. Neudecker,  C. Ochsenfeld,  J. A. Parkhill,  R. Peverati,  
 V. A. Rassolov,  Haisheng Ren,  Yihan Shao,  L. V. Slipchenko,  
 R. P. Steele,  J. E. Subotnik,  A. J. W. Thom,  A. Tkatchenko,  
 D. G. Truhlar,  T. Van Voorhis,  Fan Wang,  T. A. Wesolowski,  K. B. Whaley,  
 H. L. Woodcock III,  P. M. Zimmerman,  S. Faraji,  P. M. W. Gill,  
 M. Head-Gordon,  J. M. Herbert,  A. I. Krylov

 Contributors to earlier versions of Q-Chem not listed above: 
 R. D. Adamson,  B. Austin,  R. Baer,  J. Baker,  G. J. O. Beran,  
 K. Brandhorst,  S. T. Brown,  E. F. C. Byrd,  Arup K. Chakraborty,  
 G. K. L. Chan,  Chun-Min Chang,  Yunqing Chen,  C.-L. Cheng,  
 Siu Hung Chien,  D. M. Chipman,  D. L. Crittenden,  H. Dachsel,  
 R. J. Doerksen,  A. D. Dutoi,  R. G. Edgar,  J. Fosso-Tande,  
 L. Fusti-Molnar,  D. Ghosh,  A. Ghysels,  A. Golubeva-Zadorozhnaya,  
 J. Gonthier,  M. S. Gordon,  S. R. Gwaltney,  G. Hawkins,  J. E. Herr,  
 A. Heyden,  S. Hirata,  E. G. Hohenstein,  G. Kedziora,  F. J. Keil,  
 C. Kelley,  Jihan Kim,  R. A. King,  R. Z. Khaliullin,  P. P. Korambath,  
 W. Kurlancheek,  A. Laurent,  A. M. Lee,  M. S. Lee,  S. V. Levchenko,  
 Ching Yeh Lin,  D. Liotard,  E. Livshits,  R. C. Lochan,  I. Lotan,  
 L. A. Martinez-Martinez,  P. E. Maslen,  N. Nair,  D. P. O'Neill,  
 D. Neuhauser,  E. Neuscamman,  C. M. Oana,  R. Olivares-Amaya,  R. Olson,  
 T. M. Perrine,  B. Peters,  P. A. Pieniazek,  A. Prociuk,  Y. M. Rhee,  
 J. Ritchie,  M. A. Rohrdanz,  E. Rosta,  N. J. Russ,  H. F. Schaefer III,  
 M. W. Schmidt,  N. E. Schultz,  S. Sharma,  N. Shenvi,  C. D. Sherrill,  
 A. C. Simmonett,  A. Sodt,  T. Stein,  D. Stuck,  K. S. Thanthiriwatte,  
 V. Vanovschi,  L. Vogt,  Tao Wang,  A. Warshel,  M. A. Watson,  
 C. F. Williams,  Q. Wu,  X. Xu,  Jun Yang,  W. Zhang,  Yan Zhao

   Please cite Q-Chem as follows:
  "Software for the frontiers of quantum chemistry:
   An overview of developments in the Q-Chem 5 package"
   J. Chem. Phys. 155, 084801 (2021)
   https://doi.org/10.1063/5.0055522 (open access)

 Q-Chem 6.2.0 for Intel X86 EM64T Linux

 Parts of Q-Chem use Armadillo 9.900.5 (Nocturnal Misbehaviour).
 http://arma.sourceforge.net/

 Q-Chem begins on Tue Nov  5 14:27:08 2024  

 Host: 
0

     Scratch files written to /data/scratch/water_dimer_adiabatic_eda20241105142708//
 May224 |scratch|qcdevops|jenkins|workspace|build_RNUM -1
 Processing $rem in /opt/qchem/6.2.0/config/preferences:
 Processing $rem in /home/ymao/.qchemrc:

 Checking the input file for inconsistencies... 	...done.

--------------------------------------------------------------
User input:
--------------------------------------------------------------
$molecule
0 1
--
0 1
O    -1.51598   -0.11939   0.00000
H    -1.92502   0.75089    0.00000
H    -0.55962   0.04345    0.00000
--
0 1
O    1.37714    0.09749    0.00000
H    1.75572    -0.34454   0.76773
H    1.75572    -0.34454   -0.76773
$end

$rem
JOBTYPE  OPT
GEN_SCFMAN  TRUE
METHOD  B3LYP
DFT_D  D3_BJ
BASIS  DEF2-SVPD
UNRESTRICTED  FALSE
MAX_SCF_CYCLES  2000
THRESH  14
SCF_CONVERGENCE  9
MEM_TOTAL  8000
MEM_STATIC  2000
SCF_GUESS  FRAGMO
SYMMETRY  FALSE
SYM_IGNORE  FALSE
SCF_ALGORITHM  DIIS
BASIS_LIN_DEP_THRESH  6
IDERIV  1
XC_GRID  000075000302
NL_GRID  1
FD_MAT_VEC_PROD  FALSE
GEOM_OPT_TOL_GRADIENT  50
GEOM_OPT_TOL_DISPLACEMENT  50
GEOM_OPT_TOL_ENERGY  10
GEOM_OPT_DRIVER  OPTIMIZE
GEOM_OPT_MAX_CYCLES  200
$end

--------------------------------------------------------------
 Adding empirical dispersion correction 
 ----------------------------------------------------------------
 Doing -D3(BJ) with
 s6  =   1.00000
 s8  =   1.98890
 a1  =   0.39810
 a2  =   4.42110
 ----------------------------------------------------------------
 -D3 energy without 3body term =     -0.0021507815 hartrees
 ----------------------------------------------------------------
             Standard Nuclear Orientation (Angstroms)
    I     Atom           X                Y                Z
 ----------------------------------------------------------------
    1      O      -1.5113455729     0.1214767848     0.0000000000
    2      H      -1.9235976226    -0.7472862713    -0.0000000000
    3      H      -0.5555936340    -0.0448949267    -0.0000000000
    4      O       1.3809535262    -0.1060890077    -0.0000000000
    5      H       1.7611638153     0.3345394905    -0.7677300000
    6      H       1.7611638153     0.3345394905     0.7677300000
 ----------------------------------------------------------------
 Molecular Point Group                 Cs    NOp =  2
 Largest Abelian Subgroup              Cs    NOp =  2
 Nuclear Repulsion Energy =          36.56995484 hartrees
 There are       10 alpha and       10 beta electrons
 Requested basis set is def2-SVPD
 There are 34 shells and 78 basis functions

 Total QAlloc Memory Limit   8000 MB
 Mega-Array Size      1956 MB
 MEM_STATIC part      2000 MB

 A cutoff of  1.0D-14 yielded    594 shell pairs
 There are      3162 function pairs (      3504 Cartesian)
 Smallest overlap matrix eigenvalue = 1.55E-03

 Scale SEOQF with 1.000000e-01/1.000000e-01/1.000000e-01

 Standard Electronic Orientation quadrupole field applied
 Nucleus-field energy     =     0.0000000015 hartrees
 Attempting to make child job directory: /data/scratch/water_dimer_adiabatic_eda20241105142708//Frg1/
 Attempting to make child job directory: /data/scratch/water_dimer_adiabatic_eda20241105142708//Frg2/
 Creating input file /data/scratch/water_dimer_adiabatic_eda20241105142708/Frg1.input
 using default PutDataFrgm: nothing
 calling putenv with: QCSCRATCH=/data/scratch/water_dimer_adiabatic_eda20241105142708/ 
 Spawning Job For Fragment 0
 Done Job For Fragment 0
 calling putenv with: QCSCRATCH=/data/scratch 
 calling putenv with: QCTHREADS=16 
 Creating input file /data/scratch/water_dimer_adiabatic_eda20241105142708/Frg2.input
 using default PutDataFrgm: nothing
 calling putenv with: QCSCRATCH=/data/scratch/water_dimer_adiabatic_eda20241105142708/ 
 Spawning Job For Fragment 1
 Done Job For Fragment 1
 calling putenv with: QCSCRATCH=/data/scratch 
 calling putenv with: QCTHREADS=16 
 Time for running child jobs:  CPU 2.55 s  wall 2.23 s

 -----------------------------------------------------------------------
  General SCF calculation program by
  Eric Jon Sundstrom, Paul Horn, Yuezhi Mao, Dmitri Zuev, Alec White,
  David Stuck, Shaama M.S., Shane Yost, Joonho Lee, David Small,
  Daniel Levine, Susi Lehtola, Hugh Burton, Evgeny Epifanovsky,
  Bang C. Huynh
 -----------------------------------------------------------------------
 Exchange:     0.2000 Hartree-Fock + 0.0800 Slater + 0.7200 B88
 Correlation:  0.1900 VWN1RPA + 0.8100 LYP
 Using Euler-Maclaurin-Lebedev (75,302) quadrature formula
 Dispersion:   Grimme D3
 using 16 threads for integral computing
 -------------------------------------------------------
 OpenMP Integral computing Module                
 Release: version 1.0, May 2013, Q-Chem Inc. Pittsburgh 
 -------------------------------------------------------
 A restricted SCF calculation will be
 performed using DIIS
 SCF converges when DIIS error is below 1.0e-09
 ---------------------------------------
  Cycle       Energy         DIIS error
 ---------------------------------------
    1    -152.7653381708      2.35e-03  
    2    -152.7709825792      2.83e-04  
    3    -152.7710392971      1.70e-04  
    4    -152.7710504790      9.30e-05  
    5    -152.7710552514      8.92e-06  
    6    -152.7710552960      3.13e-06  
    7    -152.7710553010      9.97e-07  
    8    -152.7710553015      8.62e-08  
    9    -152.7710553016      8.74e-09  
   10    -152.7710553016      1.94e-09  
   11    -152.7710553016      1.91e-10  Convergence criterion met
 ---------------------------------------
 SCF time:   CPU 21.82s  wall 1.00s 
 SCF   energy =  -152.77105530
 Total energy =  -152.77105530
 
 --------------------------------------------------------------
             Orbital Energies (a.u.) and Symmetries
 --------------------------------------------------------------
 
 Alpha MOs, Restricted
 -- Occupied --                  
-19.181 -19.123  -1.035  -0.977  -0.569  -0.517  -0.429  -0.370
  1 A'    2 A'    3 A'    4 A'    1 A"    5 A'    6 A'    7 A'                 
 -0.349  -0.298
  8 A'    2 A"                                                                 
 -- Virtual --                   
 -0.018   0.034   0.053   0.087   0.109   0.119   0.141   0.159
  9 A'   10 A'    3 A"   11 A'   12 A'    4 A"   13 A'   14 A'                 
  0.166   0.192   0.211   0.213   0.233   0.246   0.279   0.308
  5 A"   15 A'    6 A"   16 A'   17 A'   18 A'    7 A"   19 A'                 
  0.336   0.358   0.364   0.369   0.402   0.402   0.418   0.515
  8 A"   20 A'   21 A'    9 A"   22 A'   10 A"   23 A'   24 A'                 
  0.518   0.550   0.587   0.590   0.591   0.631   0.653   0.662
 11 A"   25 A'   26 A'   12 A"   27 A'   13 A"   28 A'   14 A"                 
  0.686   0.761   0.931   0.959   0.996   1.064   1.192   1.316
 29 A'   30 A'   31 A'   32 A'   15 A"   33 A'   34 A'   16 A"                 
  1.316   1.499   1.503   1.553   1.624   1.683   1.731   1.752
 35 A'   36 A'   17 A"   37 A'   38 A'   18 A"   19 A"   39 A'                 
  1.858   1.908   1.944   1.948   2.008   2.053   2.211   2.328
 40 A'   20 A"   41 A'   21 A"   42 A'   43 A'   22 A"   44 A'                 
  2.357   2.483   3.005   3.012   3.025   3.091   3.175   3.223
 45 A'   46 A'   47 A'   23 A"   24 A"   25 A"   48 A'   49 A'                 
  3.606   3.687   3.991   4.079
 50 A'   51 A'   26 A"   52 A'                                                 
 
 Beta MOs, Restricted
 -- Occupied --                  
-19.181 -19.123  -1.035  -0.977  -0.569  -0.517  -0.429  -0.370
  1 A'    2 A'    3 A'    4 A'    1 A"    5 A'    6 A'    7 A'                 
 -0.349  -0.298
  8 A'    2 A"                                                                 
 -- Virtual --                   
 -0.018   0.034   0.053   0.087   0.109   0.119   0.141   0.159
  9 A'   10 A'    3 A"   11 A'   12 A'    4 A"   13 A'   14 A'                 
  0.166   0.192   0.211   0.213   0.233   0.246   0.279   0.308
  5 A"   15 A'    6 A"   16 A'   17 A'   18 A'    7 A"   19 A'                 
  0.336   0.358   0.364   0.369   0.402   0.402   0.418   0.515
  8 A"   20 A'   21 A'    9 A"   22 A'   10 A"   23 A'   24 A'                 
  0.518   0.550   0.587   0.590   0.591   0.631   0.653   0.662
 11 A"   25 A'   26 A'   12 A"   27 A'   13 A"   28 A'   14 A"                 
  0.686   0.761   0.931   0.959   0.996   1.064   1.192   1.316
 29 A'   30 A'   31 A'   32 A'   15 A"   33 A'   34 A'   16 A"                 
  1.316   1.499   1.503   1.553   1.624   1.683   1.731   1.752
 35 A'   36 A'   17 A"   37 A'   38 A'   18 A"   19 A"   39 A'                 
  1.858   1.908   1.944   1.948   2.008   2.053   2.211   2.328
 40 A'   20 A"   41 A'   21 A"   42 A'   43 A'   22 A"   44 A'                 
  2.357   2.483   3.005   3.012   3.025   3.091   3.175   3.223
 45 A'   46 A'   47 A'   23 A"   24 A"   25 A"   48 A'   49 A'                 
  3.606   3.687   3.991   4.079
 50 A'   51 A'   26 A"   52 A'                                                 
 --------------------------------------------------------------
 
          Ground-State Mulliken Net Atomic Charges

     Atom                 Charge (a.u.)
  ----------------------------------------
      1 O                    -0.212377
      2 H                     0.130798
      3 H                     0.063458
      4 O                    -0.282900
      5 H                     0.150511
      6 H                     0.150511
  ----------------------------------------
  Sum of atomic charges =     0.000000

 -----------------------------------------------------------------
                    Cartesian Multipole Moments
 -----------------------------------------------------------------
    Charge (ESU x 10^10)
                -0.0000
    Dipole Moment (Debye)
         X       2.7605      Y      -0.2170      Z      -0.0000
       Tot       2.7690
    Quadrupole Moments (Debye-Ang)
        XX     -11.2502     XY       6.0901     YY     -13.2962
        XZ       0.0000     YZ      -0.0000     ZZ     -12.2852
    Octopole Moments (Debye-Ang^2)
       XXX       9.2074    XXY      -1.4380    XYY      -1.0119
       YYY      -0.6913    XXZ      -0.0000    XYZ      -0.0000
       YYZ      -0.0000    XZZ       6.3784    YZZ       0.7483
       ZZZ       0.0000
    Hexadecapole Moments (Debye-Ang^3)
      XXXX    -171.8556   XXXY      24.0744   XXYY     -31.6559
      XYYY       4.5656   YYYY     -16.0742   XXXZ       0.0000
      XXYZ      -0.0000   XYYZ      -0.0000   YYYZ       0.0000
      XXZZ     -29.2730   XYZZ       2.3736   YYZZ      -5.3048
      XZZZ       0.0000   YZZZ      -0.0000   ZZZZ     -14.9902
 -----------------------------------------------------------------
 Calculating analytic gradient of the SCF energy
 Gradient of SCF Energy
            1           2           3           4           5           6
    1   0.0010525   0.0008354  -0.0022729   0.0012483  -0.0004317  -0.0004317
    2  -0.0012321   0.0012411  -0.0000679   0.0011087  -0.0005249  -0.0005249
    3   0.0000000  -0.0000000  -0.0000000   0.0000000   0.0012855  -0.0012855
 Max gradient component =       2.273E-03
 RMS gradient           =       9.733E-04
 Gradient time:  CPU 9.15 s  wall 0.57 s
 Geometry Optimization Parameters
   NAtoms,    NIC,     NZ,  NCons,   NDum,   NFix, NCnnct, MaxDiis
        6      25       0       0       0       0       0       0


** GEOMETRY OPTIMIZATION IN DELOCALIZED INTERNAL COORDINATES **
   Searching for a Minimum

   Optimization Cycle:   1

                       Coordinates (Angstroms)
     ATOM                X               Y               Z
      1  O        -1.5113455729    0.1214767848    0.0000000000
      2  H        -1.9235976226   -0.7472862713    0.0000000000
      3  H        -0.5555936340   -0.0448949267    0.0000000000
      4  O         1.3809535262   -0.1060890077    0.0000000000
      5  H         1.7611638153    0.3345394905   -0.7677300000
      6  H         1.7611638153    0.3345394905    0.7677300000
   Point Group: cs    Number of degrees of freedom:     8


   Energy is   -152.771055302


 Attempting to generate delocalized internal coordinates
 Initial Hessian constructed with Jon Baker's OPTIMIZE code

  8 Hessian modes will be used to form the next step
  Hessian Eigenvalues:
     0.047844    0.073968    0.160000    0.160001    0.199780    0.533503
     0.547483    0.551277

 Minimum search - taking simple RFO step
 Searching for Lamda that Minimizes Along All modes
 Value Taken    Lamda =  -0.00002314
 Step Taken.  Stepsize is  0.010679

                             Maximum     Tolerance    Cnvgd?
         Gradient           0.001817      0.000050      NO
         Displacement       0.005968      0.000050      NO
         Energy change     *********      0.000000      NO


 New Cartesian Coordinates Obtained by Inverse Iteration

 Displacement from previous Coordinates is:  0.008932
 Adding empirical dispersion correction 
 ----------------------------------------------------------------
 Doing -D3(BJ) with
 s6  =   1.00000
 s8  =   1.98890
 a1  =   0.39810
 a2  =   4.42110
 ----------------------------------------------------------------
 -D3 energy without 3body term =     -0.0021519547 hartrees
 ----------------------------------------------------------------
             Standard Nuclear Orientation (Angstroms)
    I     Atom           X                Y                Z
 ----------------------------------------------------------------
    1      O      -1.5101534472     0.1215598602     0.0000000000
    2      H      -1.9248937919    -0.7475929169     0.0000000000
    3      H      -0.5525271125    -0.0447870347     0.0000000000
    4      O       1.3797887126    -0.1057993068     0.0000000000
    5      H       1.7602649831     0.3344524792    -0.7695536681
    6      H       1.7602649831     0.3344524792     0.7695536681
 ----------------------------------------------------------------
 Molecular Point Group                 Cs    NOp =  2
 Largest Abelian Subgroup              Cs    NOp =  2
 Nuclear Repulsion Energy =          36.55676191 hartrees
 There are       10 alpha and       10 beta electrons
 Applying Cartesian multipole field
    Component          Value
    ---------          -----
     (2,0,0)        1.00000E-11
     (0,2,0)        2.00000E-11
     (0,0,2)       -3.00000E-11
 Nucleus-field energy     =     0.0000000015 hartrees
 Requested basis set is def2-SVPD
 There are 34 shells and 78 basis functions
 A cutoff of  1.0D-14 yielded    594 shell pairs
 There are      3162 function pairs (      3504 Cartesian)
 Smallest overlap matrix eigenvalue = 1.56E-03
 Read the previous MOs as SCF guess

 -----------------------------------------------------------------------
  General SCF calculation program by
  Eric Jon Sundstrom, Paul Horn, Yuezhi Mao, Dmitri Zuev, Alec White,
  David Stuck, Shaama M.S., Shane Yost, Joonho Lee, David Small,
  Daniel Levine, Susi Lehtola, Hugh Burton, Evgeny Epifanovsky,
  Bang C. Huynh
 -----------------------------------------------------------------------
 Exchange:     0.2000 Hartree-Fock + 0.0800 Slater + 0.7200 B88
 Correlation:  0.1900 VWN1RPA + 0.8100 LYP
 Using Euler-Maclaurin-Lebedev (75,302) quadrature formula
 Dispersion:   Grimme D3
 A restricted SCF calculation will be
 performed using DIIS
 SCF converges when DIIS error is below 1.0e-09
 ---------------------------------------
  Cycle       Energy         DIIS error
 ---------------------------------------
    1    -152.7710638872      8.66e-05  
    2    -152.7710676117      3.27e-05  
    3    -152.7710674998      3.57e-05  
    4    -152.7710682020      1.79e-06  
    5    -152.7710682035      6.70e-07  
    6    -152.7710682037      2.83e-07  
    7    -152.7710682038      9.46e-09  
    8    -152.7710682038      3.13e-09  
    9    -152.7710682038      1.48e-10  Convergence criterion met
 ---------------------------------------
 SCF time:   CPU 17.86s  wall 1.00s 
 SCF   energy =  -152.77106820
 Total energy =  -152.77106820
 
 --------------------------------------------------------------
             Orbital Energies (a.u.) and Symmetries
 --------------------------------------------------------------
 
 Alpha MOs, Restricted
 -- Occupied --                  
-19.181 -19.123  -1.035  -0.976  -0.569  -0.517  -0.429  -0.370
  1 A'    2 A'    3 A'    4 A'    1 A"    5 A'    6 A'    7 A'                 
 -0.349  -0.298
  8 A'    2 A"                                                                 
 -- Virtual --                   
 -0.018   0.034   0.053   0.087   0.109   0.119   0.141   0.159
  9 A'   10 A'    3 A"   11 A'   12 A'    4 A"   13 A'   14 A'                 
  0.166   0.192   0.211   0.213   0.233   0.246   0.279   0.308
  5 A"   15 A'    6 A"   16 A'   17 A'   18 A'    7 A"   19 A'                 
  0.335   0.358   0.364   0.368   0.402   0.402   0.418   0.515
  8 A"   20 A'   21 A'    9 A"   22 A'   10 A"   23 A'   24 A'                 
  0.518   0.550   0.586   0.590   0.591   0.631   0.653   0.662
 11 A"   25 A'   26 A'   12 A"   27 A'   13 A"   28 A'   14 A"                 
  0.686   0.761   0.930   0.959   0.996   1.064   1.192   1.316
 29 A'   30 A'   31 A'   32 A'   15 A"   33 A'   34 A'   16 A"                 
  1.316   1.499   1.503   1.553   1.624   1.682   1.731   1.752
 35 A'   36 A'   17 A"   37 A'   38 A'   18 A"   19 A"   39 A'                 
  1.857   1.906   1.943   1.948   2.008   2.053   2.208   2.325
 40 A'   20 A"   41 A'   21 A"   42 A'   43 A'   22 A"   44 A'                 
  2.356   2.482   3.003   3.010   3.024   3.090   3.172   3.220
 45 A'   46 A'   47 A'   23 A"   24 A"   25 A"   48 A'   49 A'                 
  3.605   3.686   3.987   4.075
 50 A'   51 A'   26 A"   52 A'                                                 
 
 Beta MOs, Restricted
 -- Occupied --                  
-19.181 -19.123  -1.035  -0.976  -0.569  -0.517  -0.429  -0.370
  1 A'    2 A'    3 A'    4 A'    1 A"    5 A'    6 A'    7 A'                 
 -0.349  -0.298
  8 A'    2 A"                                                                 
 -- Virtual --                   
 -0.018   0.034   0.053   0.087   0.109   0.119   0.141   0.159
  9 A'   10 A'    3 A"   11 A'   12 A'    4 A"   13 A'   14 A'                 
  0.166   0.192   0.211   0.213   0.233   0.246   0.279   0.308
  5 A"   15 A'    6 A"   16 A'   17 A'   18 A'    7 A"   19 A'                 
  0.335   0.358   0.364   0.368   0.402   0.402   0.418   0.515
  8 A"   20 A'   21 A'    9 A"   22 A'   10 A"   23 A'   24 A'                 
  0.518   0.550   0.586   0.590   0.591   0.631   0.653   0.662
 11 A"   25 A'   26 A'   12 A"   27 A'   13 A"   28 A'   14 A"                 
  0.686   0.761   0.930   0.959   0.996   1.064   1.192   1.316
 29 A'   30 A'   31 A'   32 A'   15 A"   33 A'   34 A'   16 A"                 
  1.316   1.499   1.503   1.553   1.624   1.682   1.731   1.752
 35 A'   36 A'   17 A"   37 A'   38 A'   18 A"   19 A"   39 A'                 
  1.857   1.906   1.943   1.948   2.008   2.053   2.208   2.325
 40 A'   20 A"   41 A'   21 A"   42 A'   43 A'   22 A"   44 A'                 
  2.356   2.482   3.003   3.010   3.024   3.090   3.172   3.220
 45 A'   46 A'   47 A'   23 A"   24 A"   25 A"   48 A'   49 A'                 
  3.605   3.686   3.987   4.075
 50 A'   51 A'   26 A"   52 A'                                                 
 --------------------------------------------------------------
 
          Ground-State Mulliken Net Atomic Charges

     Atom                 Charge (a.u.)
  ----------------------------------------
      1 O                    -0.216093
      2 H                     0.131749
      3 H                     0.065944
      4 O                    -0.285736
      5 H                     0.152068
      6 H                     0.152068
  ----------------------------------------
  Sum of atomic charges =     0.000000

 -----------------------------------------------------------------
                    Cartesian Multipole Moments
 -----------------------------------------------------------------
    Charge (ESU x 10^10)
                -0.0000
    Dipole Moment (Debye)
         X       2.7655      Y      -0.2182      Z      -0.0000
       Tot       2.7741
    Quadrupole Moments (Debye-Ang)
        XX     -11.2419     XY       6.0874     YY     -13.3054
        XZ      -0.0000     YZ      -0.0000     ZZ     -12.2799
    Octopole Moments (Debye-Ang^2)
       XXX       9.1671    XXY      -1.4587    XYY      -1.0111
       YYY      -0.6977    XXZ      -0.0000    XYZ      -0.0000
       YYZ      -0.0000    XZZ       6.4020    YZZ       0.7507
       ZZZ      -0.0000
    Hexadecapole Moments (Debye-Ang^3)
      XXXX    -171.5945   XXXY      24.0547   XXYY     -31.6316
      XYYY       4.5485   YYYY     -16.0969   XXXZ      -0.0000
      XXYZ      -0.0000   XYYZ      -0.0000   YYYZ      -0.0000
      XXZZ     -29.2206   XYZZ       2.3742   YYZZ      -5.3130
      XZZZ      -0.0000   YZZZ      -0.0000   ZZZZ     -15.0047
 -----------------------------------------------------------------
 Calculating analytic gradient of the SCF energy
 Gradient of SCF Energy
            1           2           3           4           5           6
    1   0.0002042  -0.0000625  -0.0004966   0.0003506   0.0000022   0.0000022
    2   0.0000493  -0.0000189  -0.0000859   0.0001009  -0.0000227  -0.0000227
    3  -0.0000000  -0.0000000   0.0000000  -0.0000000  -0.0000407   0.0000407
 Max gradient component =       4.966E-04
 RMS gradient           =       1.563E-04
 Gradient time:  CPU 9.04 s  wall 0.57 s
 Geometry Optimization Parameters
   NAtoms,    NIC,     NZ,  NCons,   NDum,   NFix, NCnnct, MaxDiis
        6      25       0       0       0       0       0       0

 Cartesian Hessian Update
 Hessian updated using BFGS update


** GEOMETRY OPTIMIZATION IN DELOCALIZED INTERNAL COORDINATES **
   Searching for a Minimum

   Optimization Cycle:   2

                       Coordinates (Angstroms)
     ATOM                X               Y               Z
      1  O        -1.5101534472    0.1215598602    0.0000000000
      2  H        -1.9248937919   -0.7475929169    0.0000000000
      3  H        -0.5525271125   -0.0447870347    0.0000000000
      4  O         1.3797887126   -0.1057993068    0.0000000000
      5  H         1.7602649831    0.3344524792   -0.7695536681
      6  H         1.7602649831    0.3344524792    0.7695536681
   Point Group: cs    Number of degrees of freedom:     8


   Energy is   -152.771068204

 Hessian updated using BFGS update

  8 Hessian modes will be used to form the next step
  Hessian Eigenvalues:
     0.037103    0.075331    0.159830    0.164869    0.198837    0.527864
     0.549695    0.605940

 Minimum search - taking simple RFO step
 Searching for Lamda that Minimizes Along All modes
 Value Taken    Lamda =  -0.00000358
 Step Taken.  Stepsize is  0.009583

                             Maximum     Tolerance    Cnvgd?
         Gradient           0.000283      0.000050      NO
         Displacement       0.006371      0.000050      NO
         Energy change     -0.000013      0.000000      NO


 New Cartesian Coordinates Obtained by Inverse Iteration

 Displacement from previous Coordinates is:  0.011247
 Adding empirical dispersion correction 
 ----------------------------------------------------------------
 Doing -D3(BJ) with
 s6  =   1.00000
 s8  =   1.98890
 a1  =   0.39810
 a2  =   4.42110
 ----------------------------------------------------------------
 -D3 energy without 3body term =     -0.0021552367 hartrees
 ----------------------------------------------------------------
             Standard Nuclear Orientation (Angstroms)
    I     Atom           X                Y                Z
 ----------------------------------------------------------------
    1      O      -1.5079166329     0.1220231056     0.0000000000
    2      H      -1.9225511032    -0.7473478937     0.0000000000
    3      H      -0.5499045890    -0.0444783908     0.0000000000
    4      O       1.3773669370    -0.1063047711     0.0000000000
    5      H       1.7578748576     0.3341967550    -0.7696063506
    6      H       1.7578748576     0.3341967550     0.7696063506
 ----------------------------------------------------------------
 Molecular Point Group                 Cs    NOp =  2
 Largest Abelian Subgroup              Cs    NOp =  2
 Nuclear Repulsion Energy =          36.58310211 hartrees
 There are       10 alpha and       10 beta electrons
 Applying Cartesian multipole field
    Component          Value
    ---------          -----
     (2,0,0)        1.00000E-11
     (0,2,0)        2.00000E-11
     (0,0,2)       -3.00000E-11
 Nucleus-field energy     =     0.0000000015 hartrees
 Requested basis set is def2-SVPD
 There are 34 shells and 78 basis functions
 A cutoff of  1.0D-14 yielded    594 shell pairs
 There are      3162 function pairs (      3504 Cartesian)
 Smallest overlap matrix eigenvalue = 1.56E-03
 Read the previous MOs as SCF guess

 -----------------------------------------------------------------------
  General SCF calculation program by
  Eric Jon Sundstrom, Paul Horn, Yuezhi Mao, Dmitri Zuev, Alec White,
  David Stuck, Shaama M.S., Shane Yost, Joonho Lee, David Small,
  Daniel Levine, Susi Lehtola, Hugh Burton, Evgeny Epifanovsky,
  Bang C. Huynh
 -----------------------------------------------------------------------
 Exchange:     0.2000 Hartree-Fock + 0.0800 Slater + 0.7200 B88
 Correlation:  0.1900 VWN1RPA + 0.8100 LYP
 Using Euler-Maclaurin-Lebedev (75,302) quadrature formula
 Dispersion:   Grimme D3
 A restricted SCF calculation will be
 performed using DIIS
 SCF converges when DIIS error is below 1.0e-09
 ---------------------------------------
  Cycle       Energy         DIIS error
 ---------------------------------------
    1    -152.7710706557      3.54e-05  
    2    -152.7710711211      7.79e-06  
    3    -152.7710710949      1.04e-05  
    4    -152.7710711545      8.36e-07  
    5    -152.7710711549      1.75e-07  
    6    -152.7710711549      9.68e-08  
    7    -152.7710711549      4.11e-09  
    8    -152.7710711549      9.10e-10  Convergence criterion met
 ---------------------------------------
 SCF time:   CPU 15.99s  wall 1.00s 
 SCF   energy =  -152.77107115
 Total energy =  -152.77107115
 
 --------------------------------------------------------------
             Orbital Energies (a.u.) and Symmetries
 --------------------------------------------------------------
 
 Alpha MOs, Restricted
 -- Occupied --                  
-19.181 -19.123  -1.035  -0.975  -0.569  -0.516  -0.429  -0.370
  1 A'    2 A'    3 A'    4 A'    1 A"    5 A'    6 A'    7 A'                 
 -0.349  -0.297
  8 A'    2 A"                                                                 
 -- Virtual --                   
 -0.018   0.034   0.053   0.087   0.109   0.119   0.141   0.159
  9 A'   10 A'    3 A"   11 A'   12 A'    4 A"   13 A'   14 A'                 
  0.166   0.192   0.211   0.213   0.233   0.246   0.279   0.308
  5 A"   15 A'    6 A"   16 A'   17 A'   18 A'    7 A"   19 A'                 
  0.335   0.358   0.364   0.369   0.402   0.402   0.418   0.515
  8 A"   20 A'   21 A'    9 A"   22 A'   10 A"   23 A'   24 A'                 
  0.518   0.550   0.586   0.590   0.592   0.631   0.653   0.663
 11 A"   25 A'   26 A'   12 A"   27 A'   13 A"   28 A'   14 A"                 
  0.686   0.761   0.930   0.958   0.996   1.064   1.192   1.316
 29 A'   30 A'   31 A'   32 A'   15 A"   33 A'   34 A'   16 A"                 
  1.317   1.500   1.503   1.553   1.624   1.682   1.731   1.752
 35 A'   36 A'   17 A"   37 A'   38 A'   18 A"   19 A"   39 A'                 
  1.857   1.905   1.943   1.949   2.008   2.054   2.208   2.326
 40 A'   20 A"   41 A'   21 A"   42 A'   43 A'   22 A"   44 A'                 
  2.355   2.484   3.002   3.011   3.024   3.090   3.172   3.219
 45 A'   46 A'   47 A'   23 A"   24 A"   25 A"   48 A'   49 A'                 
  3.604   3.686   3.987   4.075
 50 A'   51 A'   26 A"   52 A'                                                 
 
 Beta MOs, Restricted
 -- Occupied --                  
-19.181 -19.123  -1.035  -0.975  -0.569  -0.516  -0.429  -0.370
  1 A'    2 A'    3 A'    4 A'    1 A"    5 A'    6 A'    7 A'                 
 -0.349  -0.297
  8 A'    2 A"                                                                 
 -- Virtual --                   
 -0.018   0.034   0.053   0.087   0.109   0.119   0.141   0.159
  9 A'   10 A'    3 A"   11 A'   12 A'    4 A"   13 A'   14 A'                 
  0.166   0.192   0.211   0.213   0.233   0.246   0.279   0.308
  5 A"   15 A'    6 A"   16 A'   17 A'   18 A'    7 A"   19 A'                 
  0.335   0.358   0.364   0.369   0.402   0.402   0.418   0.515
  8 A"   20 A'   21 A'    9 A"   22 A'   10 A"   23 A'   24 A'                 
  0.518   0.550   0.586   0.590   0.592   0.631   0.653   0.663
 11 A"   25 A'   26 A'   12 A"   27 A'   13 A"   28 A'   14 A"                 
  0.686   0.761   0.930   0.958   0.996   1.064   1.192   1.316
 29 A'   30 A'   31 A'   32 A'   15 A"   33 A'   34 A'   16 A"                 
  1.317   1.500   1.503   1.553   1.624   1.682   1.731   1.752
 35 A'   36 A'   17 A"   37 A'   38 A'   18 A"   19 A"   39 A'                 
  1.857   1.905   1.943   1.949   2.008   2.054   2.208   2.326
 40 A'   20 A"   41 A'   21 A"   42 A'   43 A'   22 A"   44 A'                 
  2.355   2.484   3.002   3.011   3.024   3.090   3.172   3.219
 45 A'   46 A'   47 A'   23 A"   24 A"   25 A"   48 A'   49 A'                 
  3.604   3.686   3.987   4.075
 50 A'   51 A'   26 A"   52 A'                                                 
 --------------------------------------------------------------
 
          Ground-State Mulliken Net Atomic Charges

     Atom                 Charge (a.u.)
  ----------------------------------------
      1 O                    -0.216642
      2 H                     0.131815
      3 H                     0.066227
      4 O                    -0.286207
      5 H                     0.152404
      6 H                     0.152404
  ----------------------------------------
  Sum of atomic charges =     0.000000

 -----------------------------------------------------------------
                    Cartesian Multipole Moments
 -----------------------------------------------------------------
    Charge (ESU x 10^10)
                 0.0000
    Dipole Moment (Debye)
         X       2.7706      Y      -0.2179      Z       0.0000
       Tot       2.7792
    Quadrupole Moments (Debye-Ang)
        XX     -11.2480     XY       6.0816     YY     -13.3076
        XZ       0.0000     YZ       0.0000     ZZ     -12.2805
    Octopole Moments (Debye-Ang^2)
       XXX       9.1606    XXY      -1.4564    XYY      -1.0040
       YYY      -0.6963    XXZ       0.0000    XYZ       0.0000
       YYZ       0.0000    XZZ       6.3988    YZZ       0.7500
       ZZZ       0.0000
    Hexadecapole Moments (Debye-Ang^3)
      XXXX    -171.1416   XXXY      23.9968   XXYY     -31.5548
      XYYY       4.5680   YYYY     -16.1039   XXXZ       0.0000
      XXYZ       0.0000   XYYZ       0.0000   YYYZ       0.0000
      XXZZ     -29.1443   XYZZ       2.3797   YYZZ      -5.3149
      XZZZ       0.0000   YZZZ       0.0000   ZZZZ     -15.0082
 -----------------------------------------------------------------
 Calculating analytic gradient of the SCF energy
 Gradient of SCF Energy
            1           2           3           4           5           6
    1  -0.0000060  -0.0001078  -0.0001465   0.0001227   0.0000688   0.0000688
    2   0.0002565  -0.0001620  -0.0001506  -0.0000616   0.0000589   0.0000589
    3   0.0000000   0.0000000  -0.0000000  -0.0000000  -0.0001509   0.0001509
 Max gradient component =       2.565E-04
 RMS gradient           =       1.127E-04
 Gradient time:  CPU 9.02 s  wall 0.56 s
 Geometry Optimization Parameters
   NAtoms,    NIC,     NZ,  NCons,   NDum,   NFix, NCnnct, MaxDiis
        6      25       0       0       0       0       0       0

 Cartesian Hessian Update
 Hessian updated using BFGS update


** GEOMETRY OPTIMIZATION IN DELOCALIZED INTERNAL COORDINATES **
   Searching for a Minimum

   Optimization Cycle:   3

                       Coordinates (Angstroms)
     ATOM                X               Y               Z
      1  O        -1.5079166329    0.1220231056    0.0000000000
      2  H        -1.9225511032   -0.7473478937    0.0000000000
      3  H        -0.5499045890   -0.0444783908    0.0000000000
      4  O         1.3773669370   -0.1063047711    0.0000000000
      5  H         1.7578748576    0.3341967550   -0.7696063506
      6  H         1.7578748576    0.3341967550    0.7696063506
   Point Group: cs    Number of degrees of freedom:     8


   Energy is   -152.771071155

 Hessian updated using BFGS update

  8 Hessian modes will be used to form the next step
  Hessian Eigenvalues:
     0.011476    0.074858    0.159629    0.164836    0.195938    0.536235
     0.549933    0.695582

 Minimum search - taking simple RFO step
 Searching for Lamda that Minimizes Along All modes
 Value Taken    Lamda =  -0.00000602
 Step Taken.  Stepsize is  0.022453

                             Maximum     Tolerance    Cnvgd?
         Gradient           0.000305      0.000050      NO
         Displacement       0.013785      0.000050      NO
         Energy change     -0.000003      0.000000      NO


 New Cartesian Coordinates Obtained by Inverse Iteration

 Displacement from previous Coordinates is:  0.027681
 Adding empirical dispersion correction 
 ----------------------------------------------------------------
 Doing -D3(BJ) with
 s6  =   1.00000
 s8  =   1.98890
 a1  =   0.39810
 a2  =   4.42110
 ----------------------------------------------------------------
 -D3 energy without 3body term =     -0.0021633851 hartrees
 ----------------------------------------------------------------
             Standard Nuclear Orientation (Angstroms)
    I     Atom           X                Y                Z
 ----------------------------------------------------------------
    1      O      -1.5022309149     0.1229281076     0.0000000000
    2      H      -1.9165300291    -0.7465544947     0.0000000000
    3      H      -0.5438619529    -0.0436239657     0.0000000000
    4      O       1.3715452319    -0.1073699299     0.0000000000
    5      H       1.7519109961     0.3334529214    -0.7694925360
    6      H       1.7519109961     0.3334529214     0.7694925360
 ----------------------------------------------------------------
 Molecular Point Group                 Cs    NOp =  2
 Largest Abelian Subgroup              Cs    NOp =  2
 Nuclear Repulsion Energy =          36.65710029 hartrees
 There are       10 alpha and       10 beta electrons
 Applying Cartesian multipole field
    Component          Value
    ---------          -----
     (2,0,0)        1.00000E-11
     (0,2,0)        2.00000E-11
     (0,0,2)       -3.00000E-11
 Nucleus-field energy     =     0.0000000015 hartrees
 Requested basis set is def2-SVPD
 There are 34 shells and 78 basis functions
 A cutoff of  1.0D-14 yielded    594 shell pairs
 There are      3162 function pairs (      3504 Cartesian)
 Smallest overlap matrix eigenvalue = 1.55E-03
 Read the previous MOs as SCF guess

 -----------------------------------------------------------------------
  General SCF calculation program by
  Eric Jon Sundstrom, Paul Horn, Yuezhi Mao, Dmitri Zuev, Alec White,
  David Stuck, Shaama M.S., Shane Yost, Joonho Lee, David Small,
  Daniel Levine, Susi Lehtola, Hugh Burton, Evgeny Epifanovsky,
  Bang C. Huynh
 -----------------------------------------------------------------------
 Exchange:     0.2000 Hartree-Fock + 0.0800 Slater + 0.7200 B88
 Correlation:  0.1900 VWN1RPA + 0.8100 LYP
 Using Euler-Maclaurin-Lebedev (75,302) quadrature formula
 Dispersion:   Grimme D3
 A restricted SCF calculation will be
 performed using DIIS
 SCF converges when DIIS error is below 1.0e-09
 ---------------------------------------
  Cycle       Energy         DIIS error
 ---------------------------------------
    1    -152.7710721696      7.59e-05  
    2    -152.7710742771      1.33e-05  
    3    -152.7710741764      1.90e-05  
    4    -152.7710743769      1.39e-06  
    5    -152.7710743780      1.43e-07  
    6    -152.7710743780      1.28e-07  
    7    -152.7710743780      1.01e-08  
    8    -152.7710743780      1.75e-09  
    9    -152.7710743780      2.01e-10  Convergence criterion met
 ---------------------------------------
 SCF time:   CPU 17.84s  wall 1.00s 
 SCF   energy =  -152.77107438
 Total energy =  -152.77107438
 
 --------------------------------------------------------------
             Orbital Energies (a.u.) and Symmetries
 --------------------------------------------------------------
 
 Alpha MOs, Restricted
 -- Occupied --                  
-19.181 -19.122  -1.035  -0.975  -0.569  -0.516  -0.429  -0.370
  1 A'    2 A'    3 A'    4 A'    1 A"    5 A'    6 A'    7 A'                 
 -0.349  -0.297
  8 A'    2 A"                                                                 
 -- Virtual --                   
 -0.018   0.035   0.053   0.087   0.109   0.119   0.141   0.159
  9 A'   10 A'    3 A"   11 A'   12 A'    4 A"   13 A'   14 A'                 
  0.166   0.192   0.211   0.213   0.233   0.247   0.280   0.309
  5 A"   15 A'    6 A"   16 A'   17 A'   18 A'    7 A"   19 A'                 
  0.335   0.358   0.365   0.369   0.402   0.402   0.418   0.515
  8 A"   20 A'   21 A'    9 A"   10 A"   22 A'   23 A'   24 A'                 
  0.519   0.550   0.586   0.590   0.592   0.630   0.654   0.663
 11 A"   25 A'   26 A'   12 A"   27 A'   13 A"   28 A'   14 A"                 
  0.687   0.763   0.930   0.958   0.996   1.064   1.193   1.317
 29 A'   30 A'   31 A'   32 A'   15 A"   33 A'   34 A'   16 A"                 
  1.317   1.501   1.503   1.553   1.623   1.682   1.732   1.752
 35 A'   36 A'   17 A"   37 A'   38 A'   18 A"   19 A"   39 A'                 
  1.856   1.905   1.944   1.952   2.008   2.054   2.207   2.327
 40 A'   20 A"   41 A'   21 A"   42 A'   43 A'   22 A"   44 A'                 
  2.355   2.491   3.001   3.011   3.024   3.090   3.172   3.220
 45 A'   46 A'   47 A'   23 A"   24 A"   25 A"   48 A'   49 A'                 
  3.604   3.687   3.987   4.076
 50 A'   51 A'   26 A"   52 A'                                                 
 
 Beta MOs, Restricted
 -- Occupied --                  
-19.181 -19.122  -1.035  -0.975  -0.569  -0.516  -0.429  -0.370
  1 A'    2 A'    3 A'    4 A'    1 A"    5 A'    6 A'    7 A'                 
 -0.349  -0.297
  8 A'    2 A"                                                                 
 -- Virtual --                   
 -0.018   0.035   0.053   0.087   0.109   0.119   0.141   0.159
  9 A'   10 A'    3 A"   11 A'   12 A'    4 A"   13 A'   14 A'                 
  0.166   0.192   0.211   0.213   0.233   0.247   0.280   0.309
  5 A"   15 A'    6 A"   16 A'   17 A'   18 A'    7 A"   19 A'                 
  0.335   0.358   0.365   0.369   0.402   0.402   0.418   0.515
  8 A"   20 A'   21 A'    9 A"   10 A"   22 A'   23 A'   24 A'                 
  0.519   0.550   0.586   0.590   0.592   0.630   0.654   0.663
 11 A"   25 A'   26 A'   12 A"   27 A'   13 A"   28 A'   14 A"                 
  0.687   0.763   0.930   0.958   0.996   1.064   1.193   1.317
 29 A'   30 A'   31 A'   32 A'   15 A"   33 A'   34 A'   16 A"                 
  1.317   1.501   1.503   1.553   1.623   1.682   1.732   1.752
 35 A'   36 A'   17 A"   37 A'   38 A'   18 A"   19 A"   39 A'                 
  1.856   1.905   1.944   1.952   2.008   2.054   2.207   2.327
 40 A'   20 A"   41 A'   21 A"   42 A'   43 A'   22 A"   44 A'                 
  2.355   2.491   3.001   3.011   3.024   3.090   3.172   3.220
 45 A'   46 A'   47 A'   23 A"   24 A"   25 A"   48 A'   49 A'                 
  3.604   3.687   3.987   4.076
 50 A'   51 A'   26 A"   52 A'                                                 
 --------------------------------------------------------------
 
          Ground-State Mulliken Net Atomic Charges

     Atom                 Charge (a.u.)
  ----------------------------------------
      1 O                    -0.216916
      2 H                     0.131582
      3 H                     0.066288
      4 O                    -0.286614
      5 H                     0.152830
      6 H                     0.152830
  ----------------------------------------
  Sum of atomic charges =     0.000000

 -----------------------------------------------------------------
                    Cartesian Multipole Moments
 -----------------------------------------------------------------
    Charge (ESU x 10^10)
                -0.0000
    Dipole Moment (Debye)
         X       2.7812      Y      -0.2173      Z      -0.0000
       Tot       2.7897
    Quadrupole Moments (Debye-Ang)
        XX     -11.2619     XY       6.0652     YY     -13.3115
        XZ      -0.0000     YZ      -0.0000     ZZ     -12.2811
    Octopole Moments (Debye-Ang^2)
       XXX       9.1332    XXY      -1.4504    XYY      -0.9884
       YYY      -0.6921    XXZ      -0.0000    XYZ      -0.0000
       YYZ       0.0000    XZZ       6.3859    YZZ       0.7478
       ZZZ      -0.0000
    Hexadecapole Moments (Debye-Ang^3)
      XXXX    -170.0039   XXXY      23.8398   XXYY     -31.3615
      XYYY       4.6079   YYYY     -16.1131   XXXZ      -0.0000
      XXYZ      -0.0000   XYYZ       0.0000   YYYZ       0.0000
      XXZZ     -28.9532   XYZZ       2.3895   YYZZ      -5.3172
      XZZZ      -0.0000   YZZZ      -0.0000   ZZZZ     -15.0109
 -----------------------------------------------------------------
 Calculating analytic gradient of the SCF energy
 Gradient of SCF Energy
            1           2           3           4           5           6
    1  -0.0001117  -0.0000428   0.0001410  -0.0001234   0.0000684   0.0000684
    2   0.0002921  -0.0001437  -0.0002047  -0.0000914   0.0000739   0.0000739
    3  -0.0000000   0.0000000   0.0000000   0.0000000  -0.0000993   0.0000993
 Max gradient component =       2.921E-04
 RMS gradient           =       1.168E-04
 Gradient time:  CPU 9.07 s  wall 0.57 s
 Geometry Optimization Parameters
   NAtoms,    NIC,     NZ,  NCons,   NDum,   NFix, NCnnct, MaxDiis
        6      25       0       0       0       0       0       0

 Cartesian Hessian Update
 Hessian updated using BFGS update


** GEOMETRY OPTIMIZATION IN DELOCALIZED INTERNAL COORDINATES **
   Searching for a Minimum

   Optimization Cycle:   4

                       Coordinates (Angstroms)
     ATOM                X               Y               Z
      1  O        -1.5022309149    0.1229281076    0.0000000000
      2  H        -1.9165300291   -0.7465544947    0.0000000000
      3  H        -0.5438619529   -0.0436239657    0.0000000000
      4  O         1.3715452319   -0.1073699299    0.0000000000
      5  H         1.7519109961    0.3334529214   -0.7694925360
      6  H         1.7519109961    0.3334529214    0.7694925360
   Point Group: cs    Number of degrees of freedom:     8


   Energy is   -152.771074378

 Hessian updated using BFGS update

  8 Hessian modes will be used to form the next step
  Hessian Eigenvalues:
     0.011011    0.075078    0.159579    0.166169    0.194845    0.536717
     0.549944    0.676303

 Minimum search - taking simple RFO step
 Searching for Lamda that Minimizes Along All modes
 Value Taken    Lamda =  -0.00000024
 Step Taken.  Stepsize is  0.001821

                             Maximum     Tolerance    Cnvgd?
         Gradient           0.000185      0.000050      NO
         Displacement       0.000980      0.000050      NO
         Energy change     -0.000003      0.000000      NO


 New Cartesian Coordinates Obtained by Inverse Iteration

 Displacement from previous Coordinates is:  0.002316
 Adding empirical dispersion correction 
 ----------------------------------------------------------------
 Doing -D3(BJ) with
 s6  =   1.00000
 s8  =   1.98890
 a1  =   0.39810
 a2  =   4.42110
 ----------------------------------------------------------------
 -D3 energy without 3body term =     -0.0021640593 hartrees
 ----------------------------------------------------------------
             Standard Nuclear Orientation (Angstroms)
    I     Atom           X                Y                Z
 ----------------------------------------------------------------
    1      O      -1.5017338442     0.1228900480     0.0000000000
    2      H      -1.9159993163    -0.7464809330     0.0000000000
    3      H      -0.5434383264    -0.0434029729     0.0000000000
    4      O       1.3711172352    -0.1073816725     0.0000000000
    5      H       1.7513992895     0.3333305452    -0.7694633692
    6      H       1.7513992895     0.3333305452     0.7694633692
 ----------------------------------------------------------------
 Molecular Point Group                 Cs    NOp =  2
 Largest Abelian Subgroup              Cs    NOp =  2
 Nuclear Repulsion Energy =          36.66522518 hartrees
 There are       10 alpha and       10 beta electrons
 Applying Cartesian multipole field
    Component          Value
    ---------          -----
     (2,0,0)        1.00000E-11
     (0,2,0)        2.00000E-11
     (0,0,2)       -3.00000E-11
 Nucleus-field energy     =     0.0000000015 hartrees
 Requested basis set is def2-SVPD
 There are 34 shells and 78 basis functions
 A cutoff of  1.0D-14 yielded    594 shell pairs
 There are      3162 function pairs (      3504 Cartesian)
 Smallest overlap matrix eigenvalue = 1.55E-03
 Read the previous MOs as SCF guess

 -----------------------------------------------------------------------
  General SCF calculation program by
  Eric Jon Sundstrom, Paul Horn, Yuezhi Mao, Dmitri Zuev, Alec White,
  David Stuck, Shaama M.S., Shane Yost, Joonho Lee, David Small,
  Daniel Levine, Susi Lehtola, Hugh Burton, Evgeny Epifanovsky,
  Bang C. Huynh
 -----------------------------------------------------------------------
 Exchange:     0.2000 Hartree-Fock + 0.0800 Slater + 0.7200 B88
 Correlation:  0.1900 VWN1RPA + 0.8100 LYP
 Using Euler-Maclaurin-Lebedev (75,302) quadrature formula
 Dispersion:   Grimme D3
 A restricted SCF calculation will be
 performed using DIIS
 SCF converges when DIIS error is below 1.0e-09
 ---------------------------------------
  Cycle       Energy         DIIS error
 ---------------------------------------
    1    -152.7710745115      7.88e-06  
    2    -152.7710745439      1.85e-06  
    3    -152.7710745427      2.41e-06  
    4    -152.7710745459      1.76e-07  
    5    -152.7710745459      3.29e-08  
    6    -152.7710745459      2.79e-08  
    7    -152.7710745459      1.13e-09  
    8    -152.7710745459      2.53e-10  Convergence criterion met
 ---------------------------------------
 SCF time:   CPU 15.91s  wall 1.00s 
 SCF   energy =  -152.77107455
 Total energy =  -152.77107455
 
 --------------------------------------------------------------
             Orbital Energies (a.u.) and Symmetries
 --------------------------------------------------------------
 
 Alpha MOs, Restricted
 -- Occupied --                  
-19.181 -19.122  -1.035  -0.975  -0.569  -0.516  -0.429  -0.370
  1 A'    2 A'    3 A'    4 A'    1 A"    5 A'    6 A'    7 A'                 
 -0.349  -0.297
  8 A'    2 A"                                                                 
 -- Virtual --                   
 -0.018   0.035   0.053   0.086   0.109   0.119   0.141   0.159
  9 A'   10 A'    3 A"   11 A'   12 A'    4 A"   13 A'   14 A'                 
  0.166   0.192   0.211   0.213   0.233   0.247   0.280   0.309
  5 A"   15 A'    6 A"   16 A'   17 A'   18 A'    7 A"   19 A'                 
  0.335   0.358   0.365   0.369   0.402   0.402   0.418   0.515
  8 A"   20 A'   21 A'    9 A"   10 A"   22 A'   23 A'   24 A'                 
  0.519   0.550   0.586   0.590   0.592   0.630   0.654   0.663
 11 A"   25 A'   26 A'   12 A"   27 A'   13 A"   28 A'   14 A"                 
  0.687   0.764   0.931   0.958   0.996   1.064   1.193   1.317
 29 A'   30 A'   31 A'   32 A'   15 A"   33 A'   34 A'   35 A'                 
  1.317   1.501   1.503   1.553   1.623   1.682   1.732   1.752
 16 A"   36 A'   17 A"   37 A'   38 A'   18 A"   19 A"   39 A'                 
  1.856   1.905   1.944   1.952   2.008   2.055   2.208   2.327
 40 A'   20 A"   41 A'   21 A"   42 A'   43 A'   22 A"   44 A'                 
  2.355   2.492   3.001   3.011   3.024   3.091   3.172   3.220
 45 A'   46 A'   47 A'   23 A"   24 A"   25 A"   48 A'   49 A'                 
  3.604   3.687   3.987   4.076
 50 A'   51 A'   26 A"   52 A'                                                 
 
 Beta MOs, Restricted
 -- Occupied --                  
-19.181 -19.122  -1.035  -0.975  -0.569  -0.516  -0.429  -0.370
  1 A'    2 A'    3 A'    4 A'    1 A"    5 A'    6 A'    7 A'                 
 -0.349  -0.297
  8 A'    2 A"                                                                 
 -- Virtual --                   
 -0.018   0.035   0.053   0.086   0.109   0.119   0.141   0.159
  9 A'   10 A'    3 A"   11 A'   12 A'    4 A"   13 A'   14 A'                 
  0.166   0.192   0.211   0.213   0.233   0.247   0.280   0.309
  5 A"   15 A'    6 A"   16 A'   17 A'   18 A'    7 A"   19 A'                 
  0.335   0.358   0.365   0.369   0.402   0.402   0.418   0.515
  8 A"   20 A'   21 A'    9 A"   10 A"   22 A'   23 A'   24 A'                 
  0.519   0.550   0.586   0.590   0.592   0.630   0.654   0.663
 11 A"   25 A'   26 A'   12 A"   27 A'   13 A"   28 A'   14 A"                 
  0.687   0.764   0.931   0.958   0.996   1.064   1.193   1.317
 29 A'   30 A'   31 A'   32 A'   15 A"   33 A'   34 A'   35 A'                 
  1.317   1.501   1.503   1.553   1.623   1.682   1.732   1.752
 16 A"   36 A'   17 A"   37 A'   38 A'   18 A"   19 A"   39 A'                 
  1.856   1.905   1.944   1.952   2.008   2.055   2.208   2.327
 40 A'   20 A"   41 A'   21 A"   42 A'   43 A'   22 A"   44 A'                 
  2.355   2.492   3.001   3.011   3.024   3.091   3.172   3.220
 45 A'   46 A'   47 A'   23 A"   24 A"   25 A"   48 A'   49 A'                 
  3.604   3.687   3.987   4.076
 50 A'   51 A'   26 A"   52 A'                                                 
 --------------------------------------------------------------
 
          Ground-State Mulliken Net Atomic Charges

     Atom                 Charge (a.u.)
  ----------------------------------------
      1 O                    -0.216700
      2 H                     0.131420
      3 H                     0.066213
      4 O                    -0.286465
      5 H                     0.152766
      6 H                     0.152766
  ----------------------------------------
  Sum of atomic charges =     0.000000

 -----------------------------------------------------------------
                    Cartesian Multipole Moments
 -----------------------------------------------------------------
    Charge (ESU x 10^10)
                -0.0000
    Dipole Moment (Debye)
         X       2.7816      Y      -0.2171      Z      -0.0000
       Tot       2.7901
    Quadrupole Moments (Debye-Ang)
        XX     -11.2629     XY       6.0631     YY     -13.3116
        XZ      -0.0000     YZ      -0.0000     ZZ     -12.2806
    Octopole Moments (Debye-Ang^2)
       XXX       9.1280    XXY      -1.4509    XYY      -0.9880
       YYY      -0.6914    XXZ      -0.0000    XYZ      -0.0000
       YYZ       0.0000    XZZ       6.3842    YZZ       0.7477
       ZZZ       0.0000
    Hexadecapole Moments (Debye-Ang^3)
      XXXX    -169.9068   XXXY      23.8220   XXYY     -31.3447
      XYYY       4.6075   YYYY     -16.1114   XXXZ      -0.0000
      XXYZ      -0.0000   XYYZ       0.0000   YYYZ      -0.0000
      XXZZ     -28.9362   XYZZ       2.3887   YYZZ      -5.3169
      XZZZ       0.0000   YZZZ      -0.0000   ZZZZ     -15.0095
 -----------------------------------------------------------------
 Calculating analytic gradient of the SCF energy
 Gradient of SCF Energy
            1           2           3           4           5           6
    1  -0.0000264  -0.0000079   0.0000418  -0.0000493   0.0000209   0.0000209
    2   0.0001524  -0.0000405  -0.0001664   0.0000105   0.0000220   0.0000220
    3   0.0000000  -0.0000000  -0.0000000   0.0000000  -0.0000223   0.0000223
 Max gradient component =       1.664E-04
 RMS gradient           =       5.796E-05
 Gradient time:  CPU 9.15 s  wall 0.57 s
 Geometry Optimization Parameters
   NAtoms,    NIC,     NZ,  NCons,   NDum,   NFix, NCnnct, MaxDiis
        6      25       0       0       0       0       0       0

 Cartesian Hessian Update
 Hessian updated using BFGS update


** GEOMETRY OPTIMIZATION IN DELOCALIZED INTERNAL COORDINATES **
   Searching for a Minimum

   Optimization Cycle:   5

                       Coordinates (Angstroms)
     ATOM                X               Y               Z
      1  O        -1.5017338442    0.1228900480    0.0000000000
      2  H        -1.9159993163   -0.7464809330    0.0000000000
      3  H        -0.5434383264   -0.0434029729    0.0000000000
      4  O         1.3711172352   -0.1073816725    0.0000000000
      5  H         1.7513992895    0.3333305452   -0.7694633692
      6  H         1.7513992895    0.3333305452    0.7694633692
   Point Group: cs    Number of degrees of freedom:     8


   Energy is   -152.771074546

 Hessian updated using BFGS update

  8 Hessian modes will be used to form the next step
  Hessian Eigenvalues:
     0.011427    0.072783    0.108971    0.159909    0.173591    0.534876
     0.549956    0.671789

 Minimum search - taking simple RFO step
 Searching for Lamda that Minimizes Along All modes
 Value Taken    Lamda =  -0.00000015
 Step Taken.  Stepsize is  0.001339

                             Maximum     Tolerance    Cnvgd?
         Gradient           0.000093      0.000050      NO
         Displacement       0.001019      0.000050      NO
         Energy change     -0.000000      0.000000      NO


 New Cartesian Coordinates Obtained by Inverse Iteration

 Displacement from previous Coordinates is:  0.001266
 Adding empirical dispersion correction 
 ----------------------------------------------------------------
 Doing -D3(BJ) with
 s6  =   1.00000
 s8  =   1.98890
 a1  =   0.39810
 a2  =   4.42110
 ----------------------------------------------------------------
 -D3 energy without 3body term =     -0.0021643223 hartrees
 ----------------------------------------------------------------
             Standard Nuclear Orientation (Angstroms)
    I     Atom           X                Y                Z
 ----------------------------------------------------------------
    1      O      -1.5015964554     0.1228171051     0.0000000000
    2      H      -1.9156550745    -0.7465533514     0.0000000000
    3      H      -0.5433309318    -0.0430254652     0.0000000000
    4      O       1.3709501705    -0.1073710972     0.0000000000
    5      H       1.7511883092     0.3332091844    -0.7694585033
    6      H       1.7511883092     0.3332091844     0.7694585033
 ----------------------------------------------------------------
 Molecular Point Group                 Cs    NOp =  2
 Largest Abelian Subgroup              Cs    NOp =  2
 Nuclear Repulsion Energy =          36.66896683 hartrees
 There are       10 alpha and       10 beta electrons
 Applying Cartesian multipole field
    Component          Value
    ---------          -----
     (2,0,0)        1.00000E-11
     (0,2,0)        2.00000E-11
     (0,0,2)       -3.00000E-11
 Nucleus-field energy     =     0.0000000015 hartrees
 Requested basis set is def2-SVPD
 There are 34 shells and 78 basis functions
 A cutoff of  1.0D-14 yielded    594 shell pairs
 There are      3162 function pairs (      3504 Cartesian)
 Smallest overlap matrix eigenvalue = 1.55E-03
 Read the previous MOs as SCF guess

 -----------------------------------------------------------------------
  General SCF calculation program by
  Eric Jon Sundstrom, Paul Horn, Yuezhi Mao, Dmitri Zuev, Alec White,
  David Stuck, Shaama M.S., Shane Yost, Joonho Lee, David Small,
  Daniel Levine, Susi Lehtola, Hugh Burton, Evgeny Epifanovsky,
  Bang C. Huynh
 -----------------------------------------------------------------------
 Exchange:     0.2000 Hartree-Fock + 0.0800 Slater + 0.7200 B88
 Correlation:  0.1900 VWN1RPA + 0.8100 LYP
 Using Euler-Maclaurin-Lebedev (75,302) quadrature formula
 Dispersion:   Grimme D3
 A restricted SCF calculation will be
 performed using DIIS
 SCF converges when DIIS error is below 1.0e-09
 ---------------------------------------
  Cycle       Energy         DIIS error
 ---------------------------------------
    1    -152.7710746093      8.98e-06  
    2    -152.7710746541      1.53e-06  
    3    -152.7710746532      2.02e-06  
    4    -152.7710746554      1.99e-07  
    5    -152.7710746555      1.95e-08  
    6    -152.7710746555      8.31e-09  
    7    -152.7710746555      3.15e-09  
    8    -152.7710746555      3.01e-10  Convergence criterion met
 ---------------------------------------
 SCF time:   CPU 15.94s  wall 1.00s 
 SCF   energy =  -152.77107466
 Total energy =  -152.77107466
 
 --------------------------------------------------------------
             Orbital Energies (a.u.) and Symmetries
 --------------------------------------------------------------
 
 Alpha MOs, Restricted
 -- Occupied --                  
-19.181 -19.122  -1.035  -0.975  -0.569  -0.516  -0.429  -0.370
  1 A'    2 A'    3 A'    4 A'    1 A"    5 A'    6 A'    7 A'                 
 -0.349  -0.297
  8 A'    2 A"                                                                 
 -- Virtual --                   
 -0.018   0.035   0.053   0.086   0.109   0.119   0.141   0.159
  9 A'   10 A'    3 A"   11 A'   12 A'    4 A"   13 A'   14 A'                 
  0.166   0.192   0.211   0.213   0.233   0.247   0.280   0.309
  5 A"   15 A'    6 A"   16 A'   17 A'   18 A'    7 A"   19 A'                 
  0.335   0.358   0.365   0.369   0.402   0.402   0.418   0.515
  8 A"   20 A'   21 A'    9 A"   10 A"   22 A'   23 A'   24 A'                 
  0.519   0.550   0.586   0.590   0.592   0.630   0.654   0.663
 11 A"   25 A'   26 A'   12 A"   27 A'   13 A"   28 A'   14 A"                 
  0.687   0.764   0.931   0.958   0.996   1.065   1.193   1.317
 29 A'   30 A'   31 A'   32 A'   15 A"   33 A'   34 A'   35 A'                 
  1.318   1.502   1.503   1.553   1.624   1.682   1.732   1.752
 16 A"   36 A'   17 A"   37 A'   38 A'   18 A"   19 A"   39 A'                 
  1.856   1.905   1.944   1.952   2.008   2.055   2.208   2.328
 40 A'   20 A"   41 A'   21 A"   42 A'   43 A'   22 A"   44 A'                 
  2.355   2.492   3.001   3.011   3.024   3.091   3.172   3.220
 45 A'   46 A'   47 A'   23 A"   24 A"   25 A"   48 A'   49 A'                 
  3.604   3.687   3.987   4.076
 50 A'   51 A'   26 A"   52 A'                                                 
 
 Beta MOs, Restricted
 -- Occupied --                  
-19.181 -19.122  -1.035  -0.975  -0.569  -0.516  -0.429  -0.370
  1 A'    2 A'    3 A'    4 A'    1 A"    5 A'    6 A'    7 A'                 
 -0.349  -0.297
  8 A'    2 A"                                                                 
 -- Virtual --                   
 -0.018   0.035   0.053   0.086   0.109   0.119   0.141   0.159
  9 A'   10 A'    3 A"   11 A'   12 A'    4 A"   13 A'   14 A'                 
  0.166   0.192   0.211   0.213   0.233   0.247   0.280   0.309
  5 A"   15 A'    6 A"   16 A'   17 A'   18 A'    7 A"   19 A'                 
  0.335   0.358   0.365   0.369   0.402   0.402   0.418   0.515
  8 A"   20 A'   21 A'    9 A"   10 A"   22 A'   23 A'   24 A'                 
  0.519   0.550   0.586   0.590   0.592   0.630   0.654   0.663
 11 A"   25 A'   26 A'   12 A"   27 A'   13 A"   28 A'   14 A"                 
  0.687   0.764   0.931   0.958   0.996   1.065   1.193   1.317
 29 A'   30 A'   31 A'   32 A'   15 A"   33 A'   34 A'   35 A'                 
  1.318   1.502   1.503   1.553   1.624   1.682   1.732   1.752
 16 A"   36 A'   17 A"   37 A'   38 A'   18 A"   19 A"   39 A'                 
  1.856   1.905   1.944   1.952   2.008   2.055   2.208   2.328
 40 A'   20 A"   41 A'   21 A"   42 A'   43 A'   22 A"   44 A'                 
  2.355   2.492   3.001   3.011   3.024   3.091   3.172   3.220
 45 A'   46 A'   47 A'   23 A"   24 A"   25 A"   48 A'   49 A'                 
  3.604   3.687   3.987   4.076
 50 A'   51 A'   26 A"   52 A'                                                 
 --------------------------------------------------------------
 
          Ground-State Mulliken Net Atomic Charges

     Atom                 Charge (a.u.)
  ----------------------------------------
      1 O                    -0.216524
      2 H                     0.131262
      3 H                     0.066197
      4 O                    -0.286346
      5 H                     0.152705
      6 H                     0.152705
  ----------------------------------------
  Sum of atomic charges =     0.000000

 -----------------------------------------------------------------
                    Cartesian Multipole Moments
 -----------------------------------------------------------------
    Charge (ESU x 10^10)
                -0.0000
    Dipole Moment (Debye)
         X       2.7821      Y      -0.2170      Z      -0.0000
       Tot       2.7906
    Quadrupole Moments (Debye-Ang)
        XX     -11.2645     XY       6.0617     YY     -13.3114
        XZ      -0.0000     YZ       0.0000     ZZ     -12.2801
    Octopole Moments (Debye-Ang^2)
       XXX       9.1311    XXY      -1.4523    XYY      -0.9886
       YYY      -0.6910    XXZ      -0.0000    XYZ       0.0000
       YYZ      -0.0000    XZZ       6.3840    YZZ       0.7477
       ZZZ      -0.0000
    Hexadecapole Moments (Debye-Ang^3)
      XXXX    -169.8814   XXXY      23.8129   XXYY     -31.3382
      XYYY       4.6069   YYYY     -16.1095   XXXZ      -0.0000
      XXYZ       0.0000   XYYZ      -0.0000   YYYZ       0.0000
      XXZZ     -28.9296   XYZZ       2.3877   YYZZ      -5.3166
      XZZZ      -0.0000   YZZZ       0.0000   ZZZZ     -15.0082
 -----------------------------------------------------------------
 Calculating analytic gradient of the SCF energy
 Gradient of SCF Energy
            1           2           3           4           5           6
    1   0.0000481   0.0000133  -0.0000463   0.0000200  -0.0000176  -0.0000176
    2   0.0000346   0.0000408  -0.0001268   0.0000907  -0.0000196  -0.0000196
    3   0.0000000  -0.0000000   0.0000000   0.0000000   0.0000315  -0.0000315
 Max gradient component =       1.268E-04
 RMS gradient           =       4.446E-05
 Gradient time:  CPU 9.01 s  wall 0.56 s
 Geometry Optimization Parameters
   NAtoms,    NIC,     NZ,  NCons,   NDum,   NFix, NCnnct, MaxDiis
        6      25       0       0       0       0       0       0

 Cartesian Hessian Update
 Hessian updated using BFGS update


** GEOMETRY OPTIMIZATION IN DELOCALIZED INTERNAL COORDINATES **
   Searching for a Minimum

   Optimization Cycle:   6

                       Coordinates (Angstroms)
     ATOM                X               Y               Z
      1  O        -1.5015964554    0.1228171051    0.0000000000
      2  H        -1.9156550745   -0.7465533514    0.0000000000
      3  H        -0.5433309318   -0.0430254652    0.0000000000
      4  O         1.3709501705   -0.1073710972    0.0000000000
      5  H         1.7511883092    0.3332091844   -0.7694585033
      6  H         1.7511883092    0.3332091844    0.7694585033
   Point Group: cs    Number of degrees of freedom:     8


   Energy is   -152.771074655

 Hessian updated using BFGS update

  8 Hessian modes will be used to form the next step
  Hessian Eigenvalues:
     0.011240    0.036829    0.077061    0.159926    0.176607    0.536397
     0.549957    0.993254

 Minimum search - taking simple RFO step
 Searching for Lamda that Minimizes Along All modes
 Value Taken    Lamda =  -0.00000019
 Step Taken.  Stepsize is  0.002280

                             Maximum     Tolerance    Cnvgd?
         Gradient           0.000071      0.000050      NO
         Displacement       0.001820      0.000050      NO
         Energy change     -0.000000      0.000000      NO


 New Cartesian Coordinates Obtained by Inverse Iteration

 Displacement from previous Coordinates is:  0.002013
 Adding empirical dispersion correction 
 ----------------------------------------------------------------
 Doing -D3(BJ) with
 s6  =   1.00000
 s8  =   1.98890
 a1  =   0.39810
 a2  =   4.42110
 ----------------------------------------------------------------
 -D3 energy without 3body term =     -0.0021645271 hartrees
 ----------------------------------------------------------------
             Standard Nuclear Orientation (Angstroms)
    I     Atom           X                Y                Z
 ----------------------------------------------------------------
    1      O      -1.5016415028     0.1227483386     0.0000000000
    2      H      -1.9151013361    -0.7468268635     0.0000000000
    3      H      -0.5433225381    -0.0422630367     0.0000000000
    4      O       1.3707659142    -0.1074036865     0.0000000000
    5      H       1.7510218950     0.3330154040    -0.7694605971
    6      H       1.7510218950     0.3330154040     0.7694605971
 ----------------------------------------------------------------
 Molecular Point Group                 Cs    NOp =  2
 Largest Abelian Subgroup              Cs    NOp =  2
 Nuclear Repulsion Energy =          36.67150664 hartrees
 There are       10 alpha and       10 beta electrons
 Applying Cartesian multipole field
    Component          Value
    ---------          -----
     (2,0,0)        1.00000E-11
     (0,2,0)        2.00000E-11
     (0,0,2)       -3.00000E-11
 Nucleus-field energy     =     0.0000000015 hartrees
 Requested basis set is def2-SVPD
 There are 34 shells and 78 basis functions
 A cutoff of  1.0D-14 yielded    594 shell pairs
 There are      3162 function pairs (      3504 Cartesian)
 Smallest overlap matrix eigenvalue = 1.55E-03
 Read the previous MOs as SCF guess

 -----------------------------------------------------------------------
  General SCF calculation program by
  Eric Jon Sundstrom, Paul Horn, Yuezhi Mao, Dmitri Zuev, Alec White,
  David Stuck, Shaama M.S., Shane Yost, Joonho Lee, David Small,
  Daniel Levine, Susi Lehtola, Hugh Burton, Evgeny Epifanovsky,
  Bang C. Huynh
 -----------------------------------------------------------------------
 Exchange:     0.2000 Hartree-Fock + 0.0800 Slater + 0.7200 B88
 Correlation:  0.1900 VWN1RPA + 0.8100 LYP
 Using Euler-Maclaurin-Lebedev (75,302) quadrature formula
 Dispersion:   Grimme D3
 A restricted SCF calculation will be
 performed using DIIS
 SCF converges when DIIS error is below 1.0e-09
 ---------------------------------------
  Cycle       Energy         DIIS error
 ---------------------------------------
    1    -152.7710746439      1.66e-05  
    2    -152.7710748063      1.69e-06  
    3    -152.7710748065      1.84e-06  
    4    -152.7710748083      3.87e-07  
    5    -152.7710748083      4.65e-08  
    6    -152.7710748083      1.34e-08  
    7    -152.7710748083      5.05e-09  
    8    -152.7710748083      4.13e-10  Convergence criterion met
 ---------------------------------------
 SCF time:   CPU 15.93s  wall 1.00s 
 SCF   energy =  -152.77107481
 Total energy =  -152.77107481
 
 --------------------------------------------------------------
             Orbital Energies (a.u.) and Symmetries
 --------------------------------------------------------------
 
 Alpha MOs, Restricted
 -- Occupied --                  
-19.181 -19.122  -1.035  -0.975  -0.569  -0.516  -0.429  -0.370
  1 A'    2 A'    3 A'    4 A'    1 A"    5 A'    6 A'    7 A'                 
 -0.349  -0.297
  8 A'    2 A"                                                                 
 -- Virtual --                   
 -0.018   0.035   0.053   0.086   0.109   0.119   0.141   0.159
  9 A'   10 A'    3 A"   11 A'   12 A'    4 A"   13 A'   14 A'                 
  0.166   0.192   0.211   0.213   0.233   0.247   0.280   0.309
  5 A"   15 A'    6 A"   16 A'   17 A'   18 A'    7 A"   19 A'                 
  0.335   0.358   0.365   0.369   0.402   0.402   0.418   0.515
  8 A"   20 A'   21 A'    9 A"   22 A'   10 A"   23 A'   24 A'                 
  0.519   0.550   0.586   0.590   0.592   0.630   0.654   0.663
 11 A"   25 A'   26 A'   12 A"   27 A'   13 A"   28 A'   14 A"                 
  0.687   0.764   0.931   0.958   0.996   1.065   1.193   1.317
 29 A'   30 A'   31 A'   32 A'   15 A"   33 A'   34 A'   35 A'                 
  1.318   1.502   1.503   1.553   1.623   1.682   1.733   1.752
 16 A"   36 A'   17 A"   37 A'   38 A'   18 A"   19 A"   39 A'                 
  1.856   1.905   1.944   1.953   2.008   2.055   2.208   2.328
 40 A'   20 A"   41 A'   21 A"   42 A'   43 A'   22 A"   44 A'                 
  2.356   2.492   3.001   3.011   3.024   3.091   3.172   3.220
 45 A'   46 A'   47 A'   23 A"   24 A"   25 A"   48 A'   49 A'                 
  3.604   3.687   3.987   4.077
 50 A'   51 A'   26 A"   52 A'                                                 
 
 Beta MOs, Restricted
 -- Occupied --                  
-19.181 -19.122  -1.035  -0.975  -0.569  -0.516  -0.429  -0.370
  1 A'    2 A'    3 A'    4 A'    1 A"    5 A'    6 A'    7 A'                 
 -0.349  -0.297
  8 A'    2 A"                                                                 
 -- Virtual --                   
 -0.018   0.035   0.053   0.086   0.109   0.119   0.141   0.159
  9 A'   10 A'    3 A"   11 A'   12 A'    4 A"   13 A'   14 A'                 
  0.166   0.192   0.211   0.213   0.233   0.247   0.280   0.309
  5 A"   15 A'    6 A"   16 A'   17 A'   18 A'    7 A"   19 A'                 
  0.335   0.358   0.365   0.369   0.402   0.402   0.418   0.515
  8 A"   20 A'   21 A'    9 A"   22 A'   10 A"   23 A'   24 A'                 
  0.519   0.550   0.586   0.590   0.592   0.630   0.654   0.663
 11 A"   25 A'   26 A'   12 A"   27 A'   13 A"   28 A'   14 A"                 
  0.687   0.764   0.931   0.958   0.996   1.065   1.193   1.317
 29 A'   30 A'   31 A'   32 A'   15 A"   33 A'   34 A'   35 A'                 
  1.318   1.502   1.503   1.553   1.623   1.682   1.733   1.752
 16 A"   36 A'   17 A"   37 A'   38 A'   18 A"   19 A"   39 A'                 
  1.856   1.905   1.944   1.953   2.008   2.055   2.208   2.328
 40 A'   20 A"   41 A'   21 A"   42 A'   43 A'   22 A"   44 A'                 
  2.356   2.492   3.001   3.011   3.024   3.091   3.172   3.220
 45 A'   46 A'   47 A'   23 A"   24 A"   25 A"   48 A'   49 A'                 
  3.604   3.687   3.987   4.077
 50 A'   51 A'   26 A"   52 A'                                                 
 --------------------------------------------------------------
 
          Ground-State Mulliken Net Atomic Charges

     Atom                 Charge (a.u.)
  ----------------------------------------
      1 O                    -0.216382
      2 H                     0.131067
      3 H                     0.066260
      4 O                    -0.286256
      5 H                     0.152656
      6 H                     0.152656
  ----------------------------------------
  Sum of atomic charges =     0.000000

 -----------------------------------------------------------------
                    Cartesian Multipole Moments
 -----------------------------------------------------------------
    Charge (ESU x 10^10)
                 0.0000
    Dipole Moment (Debye)
         X       2.7836      Y      -0.2167      Z       0.0000
       Tot       2.7920
    Quadrupole Moments (Debye-Ang)
        XX     -11.2687     XY       6.0603     YY     -13.3107
        XZ      -0.0000     YZ       0.0000     ZZ     -12.2796
    Octopole Moments (Debye-Ang^2)
       XXX       9.1483    XXY      -1.4546    XYY      -0.9897
       YYY      -0.6907    XXZ      -0.0000    XYZ       0.0000
       YYZ      -0.0000    XZZ       6.3852    YZZ       0.7477
       ZZZ      -0.0000
    Hexadecapole Moments (Debye-Ang^3)
      XXXX    -169.8914   XXXY      23.8056   XXYY     -31.3340
      XYYY       4.6091   YYYY     -16.1073   XXXZ      -0.0000
      XXYZ       0.0000   XYYZ      -0.0000   YYYZ      -0.0000
      XXZZ     -28.9260   XYZZ       2.3872   YYZZ      -5.3166
      XZZZ      -0.0000   YZZZ       0.0000   ZZZZ     -15.0071
 -----------------------------------------------------------------
 Calculating analytic gradient of the SCF energy
 Gradient of SCF Energy
            1           2           3           4           5           6
    1   0.0001096   0.0000288  -0.0001181   0.0000803  -0.0000503  -0.0000503
    2  -0.0000671   0.0001071  -0.0000862   0.0001526  -0.0000532  -0.0000532
    3  -0.0000000   0.0000000  -0.0000000   0.0000000   0.0000733  -0.0000733
 Max gradient component =       1.526E-04
 RMS gradient           =       7.505E-05
 Gradient time:  CPU 8.97 s  wall 0.56 s
 Geometry Optimization Parameters
   NAtoms,    NIC,     NZ,  NCons,   NDum,   NFix, NCnnct, MaxDiis
        6      25       0       0       0       0       0       0

 Cartesian Hessian Update
 Hessian updated using BFGS update


** GEOMETRY OPTIMIZATION IN DELOCALIZED INTERNAL COORDINATES **
[...]
 a2  =   4.42110
 ----------------------------------------------------------------
 -D3 energy without 3body term =     -0.0019404332 hartrees
 ----------------------------------------------------------------
             Standard Nuclear Orientation (Angstroms)
    I     Atom           X                Y                Z
 ----------------------------------------------------------------
    1      O      -1.6655059666     0.1190974875     0.0000000000
    2      H      -2.0549246491    -0.7621026861    -0.0000000000
    3      H      -0.7110959369    -0.0240551248    -0.0000000000
    4      O       1.5288177276    -0.1013955381    -0.0000000000
    5      H       1.9297632492     0.3222711081    -0.7679529245
    6      H       1.9297632492     0.3222711081     0.7679529245
 ----------------------------------------------------------------
 Nuclear Repulsion Energy =          34.80926329 hartrees
 There are       10 alpha and       10 beta electrons
 old dipole drv.
            1           2           3           4           5           6
    1  -0.5105724  -0.0620229   0.0000000   0.2984848   0.0039026   0.0000000
    2  -0.0656637  -0.4125300   0.0000000  -0.0049840   0.1541517   0.0000000
    3  -0.0000000  -0.0000000  -0.6737673  -0.0000000  -0.0000000   0.3359568
            7           8           9          10          11          12
    1   0.2179735   0.0584884   0.0000000  -0.5396611   0.1490477   0.0000000
    2   0.0686626   0.2592421   0.0000000   0.1489565  -0.5163341   0.0000000
    3  -0.0000000  -0.0000000   0.3379433  -0.0000000   0.0000000  -0.5307570
           13          14          15          16          17          18
    1   0.2668841  -0.0747079   0.0487321   0.2668841  -0.0747079  -0.0487321
    2  -0.0734885   0.2577350   0.0490853  -0.0734885   0.2577350  -0.0490853
    3   0.0360776   0.0387910   0.2653125  -0.0360776  -0.0387910   0.2653125
 New transposed dipole drv.
            1           2           3
    1  -0.5105724  -0.0656637  -0.0000000
    2  -0.0620229  -0.4125300  -0.0000000
    3   0.0000000   0.0000000  -0.6737673
    4   0.2984848  -0.0049840  -0.0000000
    5   0.0039026   0.1541517  -0.0000000
    6   0.0000000   0.0000000   0.3359568
    7   0.2179735   0.0686626  -0.0000000
    8   0.0584884   0.2592421  -0.0000000
    9   0.0000000   0.0000000   0.3379433
   10  -0.5396611   0.1489565  -0.0000000
   11   0.1490477  -0.5163341   0.0000000
   12   0.0000000   0.0000000  -0.5307570
   13   0.2668841  -0.0734885   0.0360776
   14  -0.0747079   0.2577350   0.0387910
   15   0.0487321   0.0490853   0.2653125
   16   0.2668841  -0.0734885  -0.0360776
   17  -0.0747079   0.2577350  -0.0387910
   18  -0.0487321  -0.0490853   0.2653125
FINAL TENSOR RESULT:
Order 2, Length 18
    Atom      X          Y          Z
     1 Order 1, Length 18
    Atom      X          Y          Z
     1    6.307556037797291e-01   1.024560852154895e-01   0.000000000000000e+00
     2   -1.191080279303015e-01  -2.053823234416813e-01   0.000000000000000e+00
     3   -5.112833315450687e-01   1.027939730016780e-01   0.000000000000000e+00
     4   -9.130246793245826e-04   2.307370488504311e-04   0.000000000000000e+00
     5    2.743994347594456e-04  -4.922800057638121e-05  -3.064812827611989e-04
     6    2.743994357288284e-04  -4.922800122263641e-05   3.064812841712103e-04

Order 1, Length 18
    Atom      X          Y          Z
     1    1.024560852154895e-01   5.048634206636454e-01   0.000000000000000e+00
     2   -1.490024059235423e-01  -4.497292625831623e-01   0.000000000000000e+00
     3    4.732667193507426e-02  -5.637862461978815e-02   0.000000000000000e+00
     4   -1.859431851471792e-03   1.724079720973899e-03   0.000000000000000e+00
     5    5.395177139147329e-04  -2.398011600288854e-04  -1.377730096591034e-04
     6    5.395177162353766e-04  -2.398011598820092e-04   1.377730071915836e-04

Order 1, Length 18
    Atom      X          Y          Z
     1    0.000000000000000e+00   0.000000000000000e+00   2.088046776399116e-03
     2    0.000000000000000e+00   0.000000000000000e+00  -2.651060397640457e-04
     3    0.000000000000000e+00   0.000000000000000e+00  -3.263742171439117e-03
     4    0.000000000000000e+00   0.000000000000000e+00   2.270380238761388e-03
     5   -8.850972007220593e-04  -7.184981704607345e-05  -4.147691584746590e-04
     6    8.850972007220593e-04   7.184981704607345e-05  -4.147691584746590e-04


     2 Order 1, Length 18
    Atom      X          Y          Z
     1   -1.191080279303015e-01  -1.490024059235423e-01   0.000000000000000e+00
     2    1.373648077921566e-01   1.946477264677986e-01   0.000000000000000e+00
     3   -1.799148820999710e-02  -4.608944447257295e-02   0.000000000000000e+00
     4   -3.743708792236961e-04   4.667973715460120e-04   0.000000000000000e+00
     5    5.453877299664205e-05  -1.135255481923307e-05  -1.547007297987423e-05
     6    5.453877361352201e-05  -1.135255393797599e-05   1.547007521239218e-05

Order 1, Length 18
    Atom      X          Y          Z
     1   -2.053823234416813e-01  -4.497292625831623e-01   0.000000000000000e+00
     2    1.946477264677986e-01   4.480401216830333e-01   0.000000000000000e+00
     3    1.019304977122482e-02   1.833527182824503e-03   0.000000000000000e+00
     4    7.170613565725620e-04  -2.067099629905209e-04   0.000000000000000e+00
     5   -8.774548594815183e-05   3.115251472910938e-05   9.609088491427113e-06
     6   -8.774548633002990e-05   3.115251737288064e-05  -9.609092310207816e-06

Order 1, Length 18
    Atom      X          Y          Z
     1    0.000000000000000e+00   0.000000000000000e+00  -2.651060397640457e-04
     2    0.000000000000000e+00   0.000000000000000e+00   1.873269772777875e-04
     3    0.000000000000000e+00   0.000000000000000e+00   1.355604960170839e-04
     4    0.000000000000000e+00   0.000000000000000e+00  -2.644156161147314e-04
     5    5.412222416936655e-05   1.097961412646219e-04   1.033068654330736e-04
     6   -5.412222416936655e-05  -1.097961412646219e-04   1.033068654330736e-04


     3 Order 1, Length 18
    Atom      X          Y          Z
     1   -5.112833315450687e-01   4.732667193507426e-02   0.000000000000000e+00
     2   -1.799148820999710e-02   1.019304977122482e-02   0.000000000000000e+00
     3    5.340373396745669e-01  -5.702751587294788e-02   0.000000000000000e+00
     4   -3.987584562261342e-03  -7.591507403335543e-04   0.000000000000000e+00
     5   -3.874730537263031e-04   1.334807285833347e-04   5.958169121505338e-04
     6   -3.874730554888173e-04   1.334807269089462e-04  -5.958169170855735e-04

Order 1, Length 18
    Atom      X          Y          Z
     1    1.027939730016780e-01  -5.637862461978815e-02   0.000000000000000e+00
     2   -4.608944447257295e-02   1.833527182824503e-03   0.000000000000000e+00
     3   -5.702751587294788e-02   5.617226587074927e-02   0.000000000000000e+00
     4    2.299297285889047e-03  -2.133559693064138e-03   0.000000000000000e+00
     5   -9.881466534874181e-04   2.531991032021858e-04   2.475976544993628e-04
     6   -9.881466548680544e-04   2.531991022915535e-04  -2.475976543231114e-04

Order 1, Length 18
    Atom      X          Y          Z
     1    0.000000000000000e+00   0.000000000000000e+00  -3.263742171439117e-03
     2    0.000000000000000e+00   0.000000000000000e+00   1.355604960170839e-04
     3    0.000000000000000e+00   0.000000000000000e+00   5.769582736041709e-03
     4    0.000000000000000e+00   0.000000000000000e+00  -3.433280180293686e-03
     5    1.775595757715832e-03   1.204514315220557e-05   3.959291936382058e-04
     6   -1.775595757715832e-03  -1.204514315220557e-05   3.959291936382058e-04


     4 Order 1, Length 18
    Atom      X          Y          Z
     1   -9.130246793245826e-04  -1.859431851471792e-03   0.000000000000000e+00
     2   -3.743708792236961e-04   7.170613565725620e-04   0.000000000000000e+00
     3   -3.987584562261342e-03   2.299297285889047e-03   0.000000000000000e+00
     4    2.193305422776902e-01   2.209680417648628e-01   0.000000000000000e+00
     5   -1.070278183133697e-01  -1.110624963296127e-01   1.408313940235565e-01
     6   -1.070278183153379e-01  -1.110624963345183e-01  -1.408313940246728e-01

Order 1, Length 18
    Atom      X          Y          Z
     1    2.307370488504311e-04   1.724079720973899e-03   0.000000000000000e+00
     2    4.667973715460120e-04  -2.067099629905209e-04   0.000000000000000e+00
     3   -7.591507403335543e-04  -2.133559693064138e-03   0.000000000000000e+00
     4    2.209680417648628e-01   2.352451191720321e-01   0.000000000000000e+00
     5   -1.104532233480476e-01  -1.173144955151802e-01   1.486266424288131e-01
     6   -1.104532233516901e-01  -1.173144955178827e-01  -1.486266424274031e-01

Order 1, Length 18
    Atom      X          Y          Z
     1    0.000000000000000e+00   0.000000000000000e+00   2.270380238761388e-03
     2    0.000000000000000e+00   0.000000000000000e+00  -2.644156161147314e-04
     3    0.000000000000000e+00   0.000000000000000e+00  -3.433280180293686e-03
     4    0.000000000000000e+00   0.000000000000000e+00   6.904461086056538e-01
     5    1.789310235123017e-01   1.897615480730662e-01  -3.445094053483007e-01
     6   -1.789310235123017e-01  -1.897615480730662e-01  -3.445094053483007e-01


     5 Order 1, Length 18
    Atom      X          Y          Z
     1    2.743994347594456e-04   5.395177139147329e-04  -8.850972007220593e-04
     2    5.453877299664205e-05  -8.774548594815183e-05   5.412222416936655e-05
     3   -3.874730537263031e-04  -9.881466534874181e-04   1.775595757715832e-03
     4   -1.070278183133697e-01  -1.104532233480476e-01   1.789310235123017e-01
     5    1.014061580841389e-01   1.051371535573480e-01  -1.604904384086095e-01
     6    5.680229493379554e-03   5.852455911676966e-03  -1.938519466420176e-02

Order 1, Length 18
    Atom      X          Y          Z
     1   -4.922800057638121e-05  -2.398011600288854e-04  -7.184981704607345e-05
     2   -1.135255481923307e-05   3.115251472910938e-05   1.097961412646219e-04
     3    1.334807285833347e-04   2.531991032021858e-04   1.204514315220557e-05
     4   -1.110624963296127e-01  -1.173144955151802e-01   1.897615480730662e-01
     5    1.051371535573480e-01   1.110866033549270e-01  -1.692787924191941e-01
     6    5.852455911676966e-03   6.183373445671594e-03  -2.053273544952878e-02

Order 1, Length 18
    Atom      X          Y          Z
     1   -3.064812827611989e-04  -1.377730096591034e-04  -4.147691584746590e-04
     2   -1.547007297987423e-05   9.609088491427113e-06   1.033068654330736e-04
     3    5.958169121505338e-04   2.475976544993628e-04   3.959291936382058e-04
     4    1.408313940235565e-01   1.486266424288131e-01  -3.445094053483007e-01
     5   -1.604904384086095e-01  -1.692787924191941e-01   3.726443153000401e-01
     6    1.938519466420176e-02   2.053273544952878e-02  -2.821936827931050e-02


     6 Order 1, Length 18
    Atom      X          Y          Z
     1    2.743994357288284e-04   5.395177162353766e-04   8.850972007220593e-04
     2    5.453877361352201e-05  -8.774548633002990e-05  -5.412222416936655e-05
     3   -3.874730554888173e-04  -9.881466548680544e-04  -1.775595757715832e-03
     4   -1.070278183153379e-01  -1.104532233516901e-01  -1.789310235123017e-01
     5    5.680229493379554e-03   5.852455911676966e-03   1.938519466420176e-02
     6    1.014061580841389e-01   1.051371535573480e-01   1.604904384086095e-01

Order 1, Length 18
    Atom      X          Y          Z
     1   -4.922800122263641e-05  -2.398011598820092e-04   7.184981704607345e-05
     2   -1.135255393797599e-05   3.115251737288064e-05  -1.097961412646219e-04
     3    1.334807269089462e-04   2.531991022915535e-04  -1.204514315220557e-05
     4   -1.110624963345183e-01  -1.173144955178827e-01  -1.897615480730662e-01
     5    5.852455911676966e-03   6.183373445671594e-03   2.053273544952878e-02
     6    1.051371535573480e-01   1.110866033549270e-01   1.692787924191941e-01

Order 1, Length 18
    Atom      X          Y          Z
     1    3.064812841712103e-04   1.377730071915836e-04  -4.147691584746590e-04
     2    1.547007521239218e-05  -9.609092310207816e-06   1.033068654330736e-04
     3   -5.958169170855735e-04  -2.475976543231114e-04   3.959291936382058e-04
     4   -1.408313940246728e-01  -1.486266424274031e-01  -3.445094053483007e-01
     5   -1.938519466420176e-02  -2.053273544952878e-02  -2.821936827931050e-02
     6    1.604904384086095e-01   1.692787924191941e-01   3.726443153000401e-01





 ###########################################
 # Finishing finite difference calculation #
 ###########################################

 Requested basis set is def2-SVPD
 There are 34 shells and 78 basis functions
 **********************************************************************
 **                                                                  **
 **                       VIBRATIONAL ANALYSIS                       **
 **                       --------------------                       **
 **                                                                  **
 **        VIBRATIONAL FREQUENCIES (CM**-1) AND NORMAL MODES         **
 **     FORCE CONSTANTS (mDYN/ANGSTROM) AND REDUCED MASSES (AMU)     **
 **                  INFRARED INTENSITIES (KM/MOL)                   **
 **                                                                  **
 **********************************************************************
 

 Mode:                 1                      2                      3
 Frequency:        90.76                 101.43                 102.55
 Force Cnst:      0.0051                 0.0081                 0.0066
 Red. Mass:       1.0415                 1.3348                 1.0579
 IR Active:          YES                    YES                    YES
 IR Intens:        5.618                156.992                150.675
 Raman Active:       YES                    YES                    YES
               X      Y      Z        X      Y      Z        X      Y      Z
 O         -0.000 -0.000 -0.026    0.131  0.006 -0.000   -0.000 -0.000 -0.057
 H          0.000 -0.000 -0.191   -0.304  0.198  0.000    0.000 -0.000  0.789
 H         -0.000  0.000  0.423    0.062 -0.448  0.000   -0.000  0.000 -0.006
 O          0.000  0.000  0.039   -0.059 -0.033 -0.000    0.000  0.000 -0.010
 H         -0.580  0.078 -0.221   -0.452  0.342  0.001   -0.119  0.391  0.143
 H          0.580 -0.078 -0.221   -0.452  0.342 -0.001    0.119 -0.391  0.143
 TransDip   0.000 -0.000 -0.076   -0.377  0.139  0.000    0.000 -0.000  0.393

 Mode:                 4                      5                      6
 Frequency:       133.62                 247.74                 434.73
 Force Cnst:      0.0315                 0.0401                 0.1165
 Red. Mass:       2.9907                 1.1092                 1.0461
 IR Active:          YES                    YES                    YES
 IR Intens:       66.386                104.320                171.001
 Raman Active:       YES                    YES                    YES
               X      Y      Z        X      Y      Z        X      Y      Z
 O         -0.218  0.018 -0.000   -0.029  0.011 -0.000   -0.000  0.000 -0.032
 H         -0.607  0.189 -0.000    0.507 -0.228  0.000    0.000 -0.000  0.026
 H         -0.275 -0.390  0.000    0.050  0.543 -0.000    0.000  0.000  0.907
 O          0.287 -0.047  0.000    0.036 -0.067 -0.000    0.000 -0.000 -0.039
 H         -0.102  0.328  0.003   -0.332  0.289  0.002    0.278 -0.016  0.098
 H         -0.102  0.328 -0.003   -0.332  0.289 -0.002   -0.278  0.016  0.098
 TransDip  -0.242  0.098 -0.000   -0.040  0.325  0.000    0.000  0.000  0.419

 Mode:                 7                      8                      9
 Frequency:      1587.25                1602.20                3818.38
 Force Cnst:      1.6083                 1.6347                 8.9755
 Red. Mass:       1.0835                 1.0808                 1.0448
 IR Active:          YES                    YES                    YES
 IR Intens:       85.334                 75.433                  7.307
 Raman Active:       YES                    YES                    YES
               X      Y      Z        X      Y      Z        X      Y      Z
 O         -0.004  0.008 -0.000    0.032 -0.061  0.000   -0.004  0.005 -0.000
 H          0.077 -0.035  0.000   -0.618  0.277 -0.000   -0.038 -0.073 -0.000
 H         -0.012 -0.087  0.000    0.106  0.714  0.000    0.104 -0.011 -0.000
 O          0.049  0.051 -0.000    0.007  0.004 -0.000   -0.034 -0.036 -0.000
 H         -0.387 -0.402 -0.423   -0.053 -0.044 -0.053    0.269  0.283 -0.581
 H         -0.387 -0.402  0.423   -0.053 -0.044  0.053    0.269  0.283  0.581
 TransDip  -0.182 -0.233  0.000   -0.155  0.231  0.000    0.069  0.053  0.000

 Mode:                10                     11                     12
 Frequency:      3828.77                3922.14                3927.92
 Force Cnst:      9.0224                 9.8136                 9.8372
 Red. Mass:       1.0446                 1.0828                 1.0822
 IR Active:          YES                    YES                    YES
 IR Intens:        9.780                 75.720                 80.565
 Raman Active:       YES                    YES                    YES
               X      Y      Z        X      Y      Z        X      Y      Z
 O         -0.025  0.042 -0.000   -0.000 -0.000 -0.000   -0.061 -0.035  0.000
 H         -0.312 -0.608  0.000    0.000  0.000  0.000    0.296  0.660 -0.000
 H          0.713 -0.064  0.000    0.000 -0.000 -0.001    0.679 -0.104  0.000
 O          0.004  0.005 -0.000    0.000  0.000 -0.071    0.000  0.000  0.000
 H         -0.036 -0.037  0.078   -0.294 -0.310  0.561   -0.004 -0.003  0.008
 H         -0.036 -0.037 -0.078    0.294  0.310  0.561   -0.004 -0.003 -0.008
 TransDip   0.057 -0.082  0.000    0.000  0.000  0.279    0.255  0.132 -0.000

 STANDARD THERMODYNAMIC QUANTITIES AT   298.15 K  AND     1.00 ATM

   This Molecule has  0 Imaginary Frequencies
   Zero point vibrational energy:       28.302 kcal/mol

   Atom    1 Element O  Has Mass   15.99491
   Atom    2 Element H  Has Mass    1.00783
   Atom    3 Element H  Has Mass    1.00783
   Atom    4 Element O  Has Mass   15.99491
   Atom    5 Element H  Has Mass    1.00783
   Atom    6 Element H  Has Mass    1.00783
   Molecular Mass:    36.021140 amu
   Principal axes and moments of inertia in amu*Bohr^2:
                             1           2           3
    Eigenvalues --        8.17937   339.88746   340.19821
          X               0.99955    -0.00000    -0.03012
          Y              -0.03012    -0.00000    -0.99955
          Z              -0.00000     1.00000    -0.00000
   Rotational Symmetry Number is   1
   The Molecule is an Asymmetric Top
   Translational Enthalpy:        0.889 kcal/mol
   Rotational Enthalpy:           0.889 kcal/mol
   Vibrational Enthalpy:         30.598 kcal/mol
   gas constant (RT):             0.592 kcal/mol
   Translational Entropy:        36.674  cal/mol.K
   Rotational Entropy:           21.475  cal/mol.K
   Vibrational Entropy:          15.974  cal/mol.K

   Total Enthalpy:               32.968 kcal/mol
   Total Entropy:                74.124  cal/mol.K

   Quasi-RRHO corrections using alpha = 4, and omega = 100 cm^-1
   QRRHO-Vib. Enthalpy:          30.034 kcal/mol
   QRRHO-Vib. Entropy:           14.929  cal/mol.K
   QRRHO-Total Enthalpy:         32.404 kcal/mol
   QRRHO-Total Entropy:          73.078  cal/mol.K
 Total job time:  183.17s(wall), 495.64s(cpu) 
 Tue Nov  5 14:33:23 2024

        *************************************************************
        *                                                           *
        *  Thank you very much for using Q-Chem.  Have a nice day.  *
        *                                                           *
        *************************************************************


