
Running Job 1 of 2 water_opt_freq.in
qchem water_opt_freq.in_1305779.0 /data/scratch/water_opt_freq20241105142744/ 1
/opt/qchem/6.2.0/exe/qcprog.exe_s water_opt_freq.in_1305779.0 /data/scratch/water_opt_freq20241105142744/
                  Welcome to Q-Chem
     A Quantum Leap Into The Future Of Chemistry


 Q-Chem 6.2, Q-Chem, Inc., Pleasanton, CA (2024)

 E. Epifanovsky,  A. T. B. Gilbert,  Xintian Feng,  Joonho Lee,  Yuezhi Mao,  
 N. Mardirossian,  P. Pokhilko,  A. White,  M. Wormit,  M. P. Coons,  
 A. L. Dempwolff,  Zhengting Gan,  D. Hait,  P. R. Horn,  L. D. Jacobson,  
 I. Kaliman,  J. Kussmann,  A. W. Lange,  Ka Un Lao,  D. S. Levine,  Jie Liu,  
 S. C. McKenzie,  A. F. Morrison,  K. D. Nanda,  F. Plasser,  D. R. Rehn,  
 M. L. Vidal,  Zhi-Qiang You,  Ying Zhu,  Huseyin Aksu,  B. Alam,  
 B. Albrecht,  A. Aldossary,  E. Alguire,  J. H. Andersen,  
 J. E. Arias-Martinez,  V. Athavale,  D. Barton,  K. Begam,  A. Behn,  
 N. Bellonzi,  Y. A. Bernard,  E. J. Berquist,  H. Burton,  A. Carreras,  
 K. Carter-Fenk,  Mathew Chow,  Romit Chakraborty,  Chandrima Chakravarty,  
 Junhan Chen,  A. D. Chien,  K. D. Closser,  V. Cofer-Shabica,  L. Cunha,  
 S. Dasgupta,  Jia Deng,  Joseph Dickinson,  M. de Wergifosse,  
 M. Diedenhofen,  Hainam Do,  Wenjie Dou,  S. Ehlert,  Po-Tung Fang,  
 S. Fatehi,  Qingguo Feng,  Jonathan Fetherolf,  T. Friedhoff,  
 Thomas Froitzheim,  Sarai Folkestad,  B. Ganoe,  J. Gayvert,  Qinghui Ge,  
 G. Gidofalvi,  M. Gimferrer,  M. Goldey,  Montgomery Gray,  J. Gomes,  
 C. Gonzalez-Espinoza,  S. Gulania,  A. Gunina,  J. A. Gyamfi,  
 M. W. D. Hanson-Heine,  P. H. P. Harbach,  A. W. Hauser,  M. F. Herbst,  
 M. Hernandez Vera,  M. Hodecker,  Z. C. Holden,  S. Houck,  Xunkun Huang,  
 Kerwin Hui,  B. C. Huynh,  K. Ikeda,  M. Ivanov,  Nayanthara K. Jayadev,  
 Hyunjun Ji,  Zuxin Jin,  Hanjie Jiang,  Subrata Jana,  B. Kaduk,  
 S. Kaehler,  R. Kang,  K. Khistyaev,  Jaehoon Kim,  Yongbin Kim,  
 P. Klunzinger,  Z. Koczor-Benda,  Joong Hoon Koh,  D. Kosenkov,  
 Saikiran Kotaru,  L. Koulias,  T. Kowalczyk,  C. M. Krauter,  K. Kue,  
 A. Kunitsa,  T. Kus,  A. Landau,  K. V. Lawler,  D. Lefrancois,  S. Lehtola,  
 Rain Li,  Shaozhi Li,  Tao E. Li,  Yi-Pei Li,  Jiashu Liang,  M. Liebenthal,  
 Hung-Hsuan Lin,  You-Sheng Lin,  Fenglai Liu,  Kuan-Yu Liu,  Xiao Liu,  
 M. Loipersberger,  A. Luenser,  C. Malbon,  Aniket Mandal,  Manisha,  
 A. Manjanath,  P. Manohar,  E. Mansoor,  S. F. Manzer,  Shan-Ping Mao,  
 A. V. Marenich,  T. Markovich,  S. Mason,  F. Matz,  S. A. Maurer,  
 Samuel May,  Alexandra McIsaac,  P. F. McLaughlin,  M. F. S. J. Menger,  
 J.-M. Mewes,  S. A. Mewes,  P. Morgante,  Mohammad Mostafanejad,  
 Madhubani Mukherjee,  J. W. Mullinax,  Quyen Nguyen,  Avik Kumar Ojha,  
 K. J. Oosterbaan,  Eno Paenurk,  Xiaoliang Pan,  G. Paran,  V. Parravicini,  
 Alexander C. Paul,  Suranjan K. Paul,  F. Pavosevic,  Zheng Pei,  S. Prager,  
 E. I. Proynov,  E. Ramos,  B. Rana,  A. E. Rask,  A. Rettig,  R. M. Richard,  
 F. Rob,  E. Rossomme,  T. Scheele,  M. Scheurer,  M. Schneider,  
 P. E. Schneider,  Tim K. Schramm,  N. Sergueev,  S. M. Sharada,  
 Hengyuan Shen,  W. Skomorowski,  D. W. Small,  C. J. Stein,  
 Alistair J. Sterling,  Yingli Su,  Yu-Chuan Su,  E. J. Sundstrom,  
 J. Talbot,  Zhen Tao,  J. Thirman,  Hung-Yi Tsai,  T. Tsuchimochi,  
 N. M. Tubman,  C. Utku,  S. P. Veccham,  O. Vydrov,  Rahel Weiss,  
 J. Wenzel,  Jonathan Wong,  J. Witte,  H. Wu,  Yanze Wu,  A. Yamada,  
 Chou-Hsun Yang,  Kun Yao,  S. Yeganeh,  S. R. Yost,  Qi Yu,  A. Zech,  
 F. Zeller,  Chongxiao Zhao,  Igor Ying Zhang,  Xing Zhang,  Yu Zhang,  
 D. Zuev,  A. Aspuru-Guzik,  A. T. Bell,  N. A. Besley,  K. B. Bravaya,  
 B. R. Brooks,  D. Casanova,  Jeng-Da Chai,  Hsing-Ta Chen,  S. Coriani,  
 C. J. Cramer,  A. E. DePrince, III,  R. A. DiStasio Jr.,  A. Dreuw,  
 B. D. Dunietz,  T. R. Furlani,  W. A. Goddard III,  S. Grimme,  
 S. Hammes-Schiffer,  T. Head-Gordon,  W. J. Hehre,  Chao-Ping Hsu,  
 T.-C. Jagau,  Yousung Jung,  A. Klamt,  Jing Kong,  D. S. Lambrecht,  
 Xiangyuan Li,  WanZhen Liang,  N. J. Mayhall,  C. W. McCurdy,  J. B. Neaton,  
 T. Neudecker,  C. Ochsenfeld,  J. A. Parkhill,  R. Peverati,  
 V. A. Rassolov,  Haisheng Ren,  Yihan Shao,  L. V. Slipchenko,  
 R. P. Steele,  J. E. Subotnik,  A. J. W. Thom,  A. Tkatchenko,  
 D. G. Truhlar,  T. Van Voorhis,  Fan Wang,  T. A. Wesolowski,  K. B. Whaley,  
 H. L. Woodcock III,  P. M. Zimmerman,  S. Faraji,  P. M. W. Gill,  
 M. Head-Gordon,  J. M. Herbert,  A. I. Krylov

 Contributors to earlier versions of Q-Chem not listed above: 
 R. D. Adamson,  B. Austin,  R. Baer,  J. Baker,  G. J. O. Beran,  
 K. Brandhorst,  S. T. Brown,  E. F. C. Byrd,  Arup K. Chakraborty,  
 G. K. L. Chan,  Chun-Min Chang,  Yunqing Chen,  C.-L. Cheng,  
 Siu Hung Chien,  D. M. Chipman,  D. L. Crittenden,  H. Dachsel,  
 R. J. Doerksen,  A. D. Dutoi,  R. G. Edgar,  J. Fosso-Tande,  
 L. Fusti-Molnar,  D. Ghosh,  A. Ghysels,  A. Golubeva-Zadorozhnaya,  
 J. Gonthier,  M. S. Gordon,  S. R. Gwaltney,  G. Hawkins,  J. E. Herr,  
 A. Heyden,  S. Hirata,  E. G. Hohenstein,  G. Kedziora,  F. J. Keil,  
 C. Kelley,  Jihan Kim,  R. A. King,  R. Z. Khaliullin,  P. P. Korambath,  
 W. Kurlancheek,  A. Laurent,  A. M. Lee,  M. S. Lee,  S. V. Levchenko,  
 Ching Yeh Lin,  D. Liotard,  E. Livshits,  R. C. Lochan,  I. Lotan,  
 L. A. Martinez-Martinez,  P. E. Maslen,  N. Nair,  D. P. O'Neill,  
 D. Neuhauser,  E. Neuscamman,  C. M. Oana,  R. Olivares-Amaya,  R. Olson,  
 T. M. Perrine,  B. Peters,  P. A. Pieniazek,  A. Prociuk,  Y. M. Rhee,  
 J. Ritchie,  M. A. Rohrdanz,  E. Rosta,  N. J. Russ,  H. F. Schaefer III,  
 M. W. Schmidt,  N. E. Schultz,  S. Sharma,  N. Shenvi,  C. D. Sherrill,  
 A. C. Simmonett,  A. Sodt,  T. Stein,  D. Stuck,  K. S. Thanthiriwatte,  
 V. Vanovschi,  L. Vogt,  Tao Wang,  A. Warshel,  M. A. Watson,  
 C. F. Williams,  Q. Wu,  X. Xu,  Jun Yang,  W. Zhang,  Yan Zhao

   Please cite Q-Chem as follows:
  "Software for the frontiers of quantum chemistry:
   An overview of developments in the Q-Chem 5 package"
   J. Chem. Phys. 155, 084801 (2021)
   https://doi.org/10.1063/5.0055522 (open access)

 Q-Chem 6.2.0 for Intel X86 EM64T Linux

 Parts of Q-Chem use Armadillo 9.900.5 (Nocturnal Misbehaviour).
 http://arma.sourceforge.net/

 Q-Chem begins on Tue Nov  5 14:27:45 2024  

 Host: 
0

     Scratch files written to /data/scratch/water_opt_freq20241105142744//
 May224 |scratch|qcdevops|jenkins|workspace|build_RNUM -1
 Processing $rem in /opt/qchem/6.2.0/config/preferences:
 Processing $rem in /home/ymao/.qchemrc:

 Checking the input file for inconsistencies... 	...done.

--------------------------------------------------------------
User input:
--------------------------------------------------------------
$molecule
0 1
O    1.37714    0.09749    0.00000
H    1.75572    -0.34454   0.76773
H    1.75572    -0.34454   -0.76773
$end

$rem
JOBTYPE  OPT
GEN_SCFMAN  TRUE
METHOD  B3LYP
DFT_D  D3_BJ
BASIS  DEF2-SVPD
UNRESTRICTED  FALSE
MAX_SCF_CYCLES  2000
THRESH  14
SCF_CONVERGENCE  9
MEM_TOTAL  8000
MEM_STATIC  2000
SYMMETRY  FALSE
SYM_IGNORE  FALSE
SCF_ALGORITHM  DIIS
BASIS_LIN_DEP_THRESH  6
IDERIV  1
XC_GRID  000075000302
NL_GRID  1
FD_MAT_VEC_PROD  FALSE
GEOM_OPT_TOL_GRADIENT  50
GEOM_OPT_TOL_DISPLACEMENT  50
GEOM_OPT_TOL_ENERGY  10
GEOM_OPT_DRIVER  OPTIMIZE
GEOM_OPT_MAX_CYCLES  200
$end

--------------------------------------------------------------
 Adding empirical dispersion correction 
 ----------------------------------------------------------------
 Doing -D3(BJ) with
 s6  =   1.00000
 s8  =   1.98890
 a1  =   0.39810
 a2  =   4.42110
 ----------------------------------------------------------------
 -D3 energy without 3body term =     -0.0005738039 hartrees
 ----------------------------------------------------------------
             Standard Nuclear Orientation (Angstroms)
    I     Atom           X                Y                Z
 ----------------------------------------------------------------
    1      O       0.0000000000    -0.0000000000     0.1163981679
    2      H      -0.7677300000    -0.0000000000    -0.4655926716
    3      H       0.7677300000    -0.0000000000    -0.4655926716
 ----------------------------------------------------------------
 Molecular Point Group                 C2v   NOp =  4
 Largest Abelian Subgroup              C2v   NOp =  4
 Nuclear Repulsion Energy =           9.13263791 hartrees
 There are        5 alpha and        5 beta electrons
 Requested basis set is def2-SVPD
 There are 17 shells and 39 basis functions

 Total QAlloc Memory Limit   8000 MB
 Mega-Array Size      1956 MB
 MEM_STATIC part      2000 MB

 A cutoff of  1.0D-14 yielded    153 shell pairs
 There are       821 function pairs (       912 Cartesian)
 Smallest overlap matrix eigenvalue = 5.40E-03

 Scale SEOQF with 1.000000e-01/1.000000e-01/1.000000e-01

 Standard Electronic Orientation quadrupole field applied
 Guess from superposition of atomic densities
 Warning:  Energy on first SCF cycle will be non-variational
 SAD guess density has 10.000000 electrons

 -----------------------------------------------------------------------
  General SCF calculation program by
  Eric Jon Sundstrom, Paul Horn, Yuezhi Mao, Dmitri Zuev, Alec White,
  David Stuck, Shaama M.S., Shane Yost, Joonho Lee, David Small,
  Daniel Levine, Susi Lehtola, Hugh Burton, Evgeny Epifanovsky,
  Bang C. Huynh
 -----------------------------------------------------------------------
 Exchange:     0.2000 Hartree-Fock + 0.0800 Slater + 0.7200 B88
 Correlation:  0.1900 VWN1RPA + 0.8100 LYP
 Using Euler-Maclaurin-Lebedev (75,302) quadrature formula
 Dispersion:   Grimme D3
 using 8 threads for integral computing
 -------------------------------------------------------
 OpenMP Integral computing Module                
 Release: version 1.0, May 2013, Q-Chem Inc. Pittsburgh 
 -------------------------------------------------------
 A restricted SCF calculation will be
 performed using DIIS
 SCF converges when DIIS error is below 1.0e-09
 ---------------------------------------
  Cycle       Energy         DIIS error
 ---------------------------------------
    1     -76.3372771505      8.08e-02  
    2     -76.3075539639      2.23e-02  
    3     -76.2117757315      3.41e-02  
    4     -76.3808996889      6.61e-04  
    5     -76.3809695713      1.62e-04  
    6     -76.3809728941      2.99e-05  
    7     -76.3809730227      4.84e-07  
    8     -76.3809730228      5.69e-08  
    9     -76.3809730228      3.35e-09  
   10     -76.3809730228      2.38e-10  Convergence criterion met
 ---------------------------------------
 SCF time:   CPU 6.82s  wall 1.00s 
 SCF   energy =   -76.38097302
 Total energy =   -76.38097302
 
 --------------------------------------------------------------
             Orbital Energies (a.u.) and Symmetries
 --------------------------------------------------------------
 
 Alpha MOs, Restricted
 -- Occupied --                  
-19.155  -1.008  -0.544  -0.397  -0.325
  1 A1    2 A1    1 B1    3 A1    1 B2                                         
 -- Virtual --                   
 -0.003   0.065   0.115   0.116   0.161   0.185   0.227   0.245
  4 A1    2 B1    2 B2    5 A1    3 B1    6 A1    1 A2    7 A1                 
  0.272   0.347   0.354   0.389   0.516   0.528   0.568   0.605
  3 B2    8 A1    4 B1    5 B1    6 B1    9 A1    4 B2   10 A1                 
  0.607   0.897   1.011   1.187   1.204   1.513   1.616   1.654
  2 A2   11 A1    7 B1    5 B2   12 A1    8 B1   13 A1    3 A2                 
  1.807   1.924   1.935   2.229   2.353   2.985   3.047   3.183
  6 B2    9 B1   14 A1   10 B1   15 A1    7 B2    4 A2   16 A1                 
  3.615   4.014
 17 A1   11 B1                                                                 
 
 Beta MOs, Restricted
 -- Occupied --                  
-19.155  -1.008  -0.544  -0.397  -0.325
  1 A1    2 A1    1 B1    3 A1    1 B2                                         
 -- Virtual --                   
 -0.003   0.065   0.115   0.116   0.161   0.185   0.227   0.245
  4 A1    2 B1    2 B2    5 A1    3 B1    6 A1    1 A2    7 A1                 
  0.272   0.347   0.354   0.389   0.516   0.528   0.568   0.605
  3 B2    8 A1    4 B1    5 B1    6 B1    9 A1    4 B2   10 A1                 
  0.607   0.897   1.011   1.187   1.204   1.513   1.616   1.654
  2 A2   11 A1    7 B1    5 B2   12 A1    8 B1   13 A1    3 A2                 
  1.807   1.924   1.935   2.229   2.353   2.985   3.047   3.183
  6 B2    9 B1   14 A1   10 B1   15 A1    7 B2    4 A2   16 A1                 
  3.615   4.014
 17 A1   11 B1                                                                 
 --------------------------------------------------------------
 
          Ground-State Mulliken Net Atomic Charges

     Atom                 Charge (a.u.)
  ----------------------------------------
      1 O                    -0.236230
      2 H                     0.118115
      3 H                     0.118115
  ----------------------------------------
  Sum of atomic charges =     0.000000

 -----------------------------------------------------------------
                    Cartesian Multipole Moments
 -----------------------------------------------------------------
    Charge (ESU x 10^10)
                 0.0000
    Dipole Moment (Debye)
         X       0.0000      Y      -0.0000      Z      -1.8758
       Tot       1.8758
    Quadrupole Moments (Debye-Ang)
        XX      -4.5025     XY      -0.0000     YY      -7.8326
        XZ      -0.0000     YZ      -0.0000     ZZ      -6.5534
    Octopole Moments (Debye-Ang^2)
       XXX       0.0000    XXY      -0.0000    XYY       0.0000
       YYY      -0.0000    XXZ      -1.2750    XYZ      -0.0000
       YYZ      -0.2085    XZZ       0.0000    YZZ      -0.0000
       ZZZ      -0.9906
    Hexadecapole Moments (Debye-Ang^3)
      XXXX      -6.9447   XXXY      -0.0000   XXYY      -2.8096
      XYYY      -0.0000   YYYY      -8.0815   XXXZ      -0.0000
      XXYZ      -0.0000   XYYZ      -0.0000   YYYZ       0.0000
      XXZZ      -2.3113   XYZZ      -0.0000   YYZZ      -2.7771
      XZZZ      -0.0000   YZZZ       0.0000   ZZZZ      -8.3233
 -----------------------------------------------------------------
 Calculating analytic gradient of the SCF energy
 Gradient of SCF Energy
            1           2           3
    1  -0.0000000   0.0002355  -0.0002355
    2  -0.0000000   0.0000000   0.0000000
    3  -0.0013103   0.0006551   0.0006551
 Max gradient component =       1.310E-03
 RMS gradient           =       5.463E-04
 Gradient time:  CPU 3.54 s  wall 0.45 s
 Geometry Optimization Parameters
   NAtoms,    NIC,     NZ,  NCons,   NDum,   NFix, NCnnct, MaxDiis
        3       9       0       0       0       0       0       0


** GEOMETRY OPTIMIZATION IN DELOCALIZED INTERNAL COORDINATES **
   Searching for a Minimum

   Optimization Cycle:   1

                       Coordinates (Angstroms)
     ATOM                X               Y               Z
      1  O         0.0000000000    0.0000000000    0.1163981679
      2  H        -0.7677300000    0.0000000000   -0.4655926716
      3  H         0.7677300000    0.0000000000   -0.4655926716
   Point Group: c2v   Number of degrees of freedom:     2


   Energy is    -76.380973023


 Attempting to generate delocalized internal coordinates
 Initial Hessian constructed with Jon Baker's OPTIMIZE code

  2 Hessian modes will be used to form the next step
  Hessian Eigenvalues:
     0.160000    0.547503

 Minimum search - taking simple RFO step
 Searching for Lamda that Minimizes Along All modes
 Value Taken    Lamda =  -0.00000423
 Step Taken.  Stepsize is  0.004577

                             Maximum     Tolerance    Cnvgd?
         Gradient           0.001076      0.000050      NO
         Displacement       0.003858      0.000050      NO
         Energy change     *********      0.000000      NO


 New Cartesian Coordinates Obtained by Inverse Iteration

 Displacement from previous Coordinates is:  0.003770
 Adding empirical dispersion correction 
 ----------------------------------------------------------------
 Doing -D3(BJ) with
 s6  =   1.00000
 s8  =   1.98890
 a1  =   0.39810
 a2  =   4.42110
 ----------------------------------------------------------------
 -D3 energy without 3body term =     -0.0005738177 hartrees
 ----------------------------------------------------------------
             Standard Nuclear Orientation (Angstroms)
    I     Atom           X                Y                Z
 ----------------------------------------------------------------
    1      O       0.0000000000     0.0000000000     0.1177310277
    2      H      -0.7669191789     0.0000000000    -0.4662591015
    3      H       0.7669191789     0.0000000000    -0.4662591015
 ----------------------------------------------------------------
 Molecular Point Group                 C2v   NOp =  4
 Largest Abelian Subgroup              C2v   NOp =  4
 Nuclear Repulsion Energy =           9.12786118 hartrees
 There are        5 alpha and        5 beta electrons
 Applying Cartesian multipole field
    Component          Value
    ---------          -----
     (2,0,0)        1.00000E-11
     (0,2,0)        2.00000E-11
     (0,0,2)       -3.00000E-11
 Requested basis set is def2-SVPD
 There are 17 shells and 39 basis functions
 A cutoff of  1.0D-14 yielded    153 shell pairs
 There are       821 function pairs (       912 Cartesian)
 Smallest overlap matrix eigenvalue = 5.38E-03
 Guess MOs from SCF MO coefficient file

 -----------------------------------------------------------------------
  General SCF calculation program by
  Eric Jon Sundstrom, Paul Horn, Yuezhi Mao, Dmitri Zuev, Alec White,
  David Stuck, Shaama M.S., Shane Yost, Joonho Lee, David Small,
  Daniel Levine, Susi Lehtola, Hugh Burton, Evgeny Epifanovsky,
  Bang C. Huynh
 -----------------------------------------------------------------------
 Exchange:     0.2000 Hartree-Fock + 0.0800 Slater + 0.7200 B88
 Correlation:  0.1900 VWN1RPA + 0.8100 LYP
 Using Euler-Maclaurin-Lebedev (75,302) quadrature formula
 Dispersion:   Grimme D3
 A restricted SCF calculation will be
 performed using DIIS
 SCF converges when DIIS error is below 1.0e-09
 ---------------------------------------
  Cycle       Energy         DIIS error
 ---------------------------------------
    1     -76.3809741346      8.36e-05  
    2     -76.3809754833      1.35e-05  
    3     -76.3809754806      1.49e-05  
    4     -76.3809755096      3.57e-06  
    5     -76.3809755114      1.24e-07  
    6     -76.3809755114      6.43e-09  
    7     -76.3809755114      8.95e-10  Convergence criterion met
 ---------------------------------------
 SCF time:   CPU 4.92s  wall 1.00s 
 SCF   energy =   -76.38097551
 Total energy =   -76.38097551
 
 --------------------------------------------------------------
             Orbital Energies (a.u.) and Symmetries
 --------------------------------------------------------------
 
 Alpha MOs, Restricted
 -- Occupied --                  
-19.155  -1.008  -0.543  -0.398  -0.325
  1 A1    2 A1    1 B1    3 A1    1 B2                                         
 -- Virtual --                   
 -0.003   0.065   0.115   0.116   0.160   0.185   0.227   0.244
  4 A1    2 B1    2 B2    5 A1    3 B1    6 A1    1 A2    7 A1                 
  0.272   0.347   0.354   0.388   0.516   0.528   0.569   0.605
  3 B2    8 A1    4 B1    5 B1    6 B1    9 A1    4 B2   10 A1                 
  0.607   0.896   1.010   1.186   1.204   1.513   1.616   1.653
  2 A2   11 A1    7 B1    5 B2   12 A1    8 B1   13 A1    3 A2                 
  1.807   1.925   1.934   2.227   2.351   2.985   3.046   3.183
  6 B2    9 B1   14 A1   10 B1   15 A1    7 B2    4 A2   16 A1                 
  3.612   4.014
 17 A1   11 B1                                                                 
 
 Beta MOs, Restricted
 -- Occupied --                  
-19.155  -1.008  -0.543  -0.398  -0.325
  1 A1    2 A1    1 B1    3 A1    1 B2                                         
 -- Virtual --                   
 -0.003   0.065   0.115   0.116   0.160   0.185   0.227   0.244
  4 A1    2 B1    2 B2    5 A1    3 B1    6 A1    1 A2    7 A1                 
  0.272   0.347   0.354   0.388   0.516   0.528   0.569   0.605
  3 B2    8 A1    4 B1    5 B1    6 B1    9 A1    4 B2   10 A1                 
  0.607   0.896   1.010   1.186   1.204   1.513   1.616   1.653
  2 A2   11 A1    7 B1    5 B2   12 A1    8 B1   13 A1    3 A2                 
  1.807   1.925   1.934   2.227   2.351   2.985   3.046   3.183
  6 B2    9 B1   14 A1   10 B1   15 A1    7 B2    4 A2   16 A1                 
  3.612   4.014
 17 A1   11 B1                                                                 
 --------------------------------------------------------------
 
          Ground-State Mulliken Net Atomic Charges

     Atom                 Charge (a.u.)
  ----------------------------------------
      1 O                    -0.236818
      2 H                     0.118409
      3 H                     0.118409
  ----------------------------------------
  Sum of atomic charges =     0.000000

 -----------------------------------------------------------------
                    Cartesian Multipole Moments
 -----------------------------------------------------------------
    Charge (ESU x 10^10)
                -0.0000
    Dipole Moment (Debye)
         X      -0.0000      Y      -0.0000      Z      -1.8799
       Tot       1.8799
    Quadrupole Moments (Debye-Ang)
        XX      -4.5116     XY       0.0000     YY      -7.8336
        XZ       0.0000     YZ       0.0000     ZZ      -6.5499
    Octopole Moments (Debye-Ang^2)
       XXX      -0.0000    XXY      -0.0000    XYY      -0.0000
       YYY      -0.0000    XXZ      -1.2800    XYZ       0.0000
       YYZ      -0.2157    XZZ      -0.0000    YZZ      -0.0000
       ZZZ      -1.0122
    Hexadecapole Moments (Debye-Ang^3)
      XXXX      -6.9559   XXXY       0.0000   XXYY      -2.8099
      XYYY       0.0000   YYYY      -8.0828   XXXZ       0.0000
      XXYZ       0.0000   XYYZ       0.0000   YYYZ       0.0000
      XXZZ      -2.3120   XYZZ       0.0000   YYZZ      -2.7789
      XZZZ       0.0000   YZZZ       0.0000   ZZZZ      -8.3312
 -----------------------------------------------------------------
 Calculating analytic gradient of the SCF energy
 Gradient of SCF Energy
            1           2           3
    1  -0.0000000   0.0000746  -0.0000746
    2   0.0000000  -0.0000000  -0.0000000
    3  -0.0002577   0.0001289   0.0001289
 Max gradient component =       2.577E-04
 RMS gradient           =       1.109E-04
 Gradient time:  CPU 3.53 s  wall 0.45 s
 Geometry Optimization Parameters
   NAtoms,    NIC,     NZ,  NCons,   NDum,   NFix, NCnnct, MaxDiis
        3       9       0       0       0       0       0       0

 Cartesian Hessian Update
 Hessian updated using BFGS update


** GEOMETRY OPTIMIZATION IN DELOCALIZED INTERNAL COORDINATES **
   Searching for a Minimum

   Optimization Cycle:   2

                       Coordinates (Angstroms)
     ATOM                X               Y               Z
      1  O         0.0000000000    0.0000000000    0.1177310277
      2  H        -0.7669191789    0.0000000000   -0.4662591015
      3  H         0.7669191789    0.0000000000   -0.4662591015
   Point Group: c2v   Number of degrees of freedom:     2


   Energy is    -76.380975511

 Hessian updated using BFGS update

  2 Hessian modes will be used to form the next step
  Hessian Eigenvalues:
     0.143545    0.502985

 Minimum search - taking simple RFO step
 Searching for Lamda that Minimizes Along All modes
 Value Taken    Lamda =  -0.00000017
 Step Taken.  Stepsize is  0.000911

                             Maximum     Tolerance    Cnvgd?
         Gradient           0.000217      0.000050      NO
         Displacement       0.000837      0.000050      NO
         Energy change     -0.000002      0.000000      NO


 New Cartesian Coordinates Obtained by Inverse Iteration

 Displacement from previous Coordinates is:  0.000685
 Adding empirical dispersion correction 
 ----------------------------------------------------------------
 Doing -D3(BJ) with
 s6  =   1.00000
 s8  =   1.98890
 a1  =   0.39810
 a2  =   4.42110
 ----------------------------------------------------------------
 -D3 energy without 3body term =     -0.0005738203 hartrees
 ----------------------------------------------------------------
             Standard Nuclear Orientation (Angstroms)
    I     Atom           X                Y                Z
 ----------------------------------------------------------------
    1      O       0.0000000000     0.0000000000     0.1180013866
    2      H      -0.7668144252     0.0000000000    -0.4663942810
    3      H       0.7668144252     0.0000000000    -0.4663942810
 ----------------------------------------------------------------
 Molecular Point Group                 C2v   NOp =  4
 Largest Abelian Subgroup              C2v   NOp =  4
 Nuclear Repulsion Energy =           9.12642859 hartrees
 There are        5 alpha and        5 beta electrons
 Applying Cartesian multipole field
    Component          Value
    ---------          -----
     (2,0,0)        1.00000E-11
     (0,2,0)        2.00000E-11
     (0,0,2)       -3.00000E-11
 Requested basis set is def2-SVPD
 There are 17 shells and 39 basis functions
 A cutoff of  1.0D-14 yielded    153 shell pairs
 There are       821 function pairs (       912 Cartesian)
 Smallest overlap matrix eigenvalue = 5.38E-03
 Guess MOs from SCF MO coefficient file

 -----------------------------------------------------------------------
  General SCF calculation program by
  Eric Jon Sundstrom, Paul Horn, Yuezhi Mao, Dmitri Zuev, Alec White,
  David Stuck, Shaama M.S., Shane Yost, Joonho Lee, David Small,
  Daniel Levine, Susi Lehtola, Hugh Burton, Evgeny Epifanovsky,
  Bang C. Huynh
 -----------------------------------------------------------------------
 Exchange:     0.2000 Hartree-Fock + 0.0800 Slater + 0.7200 B88
 Correlation:  0.1900 VWN1RPA + 0.8100 LYP
 Using Euler-Maclaurin-Lebedev (75,302) quadrature formula
 Dispersion:   Grimme D3
 A restricted SCF calculation will be
 performed using DIIS
 SCF converges when DIIS error is below 1.0e-09
 ---------------------------------------
  Cycle       Energy         DIIS error
 ---------------------------------------
    1     -76.3809755374      1.72e-05  
    2     -76.3809755926      4.04e-06  
    3     -76.3809755917      4.89e-06  
    4     -76.3809755949      7.07e-07  
    5     -76.3809755950      2.39e-08  
    6     -76.3809755950      1.50e-09  
    7     -76.3809755950      1.91e-10  Convergence criterion met
 ---------------------------------------
 SCF time:   CPU 4.86s  wall 0.00s 
 SCF   energy =   -76.38097560
 Total energy =   -76.38097560
 
 --------------------------------------------------------------
             Orbital Energies (a.u.) and Symmetries
 --------------------------------------------------------------
 
 Alpha MOs, Restricted
 -- Occupied --                  
-19.155  -1.008  -0.543  -0.398  -0.325
  1 A1    2 A1    1 B1    3 A1    1 B2                                         
 -- Virtual --                   
 -0.003   0.065   0.115   0.116   0.160   0.185   0.227   0.244
  4 A1    2 B1    2 B2    5 A1    3 B1    6 A1    1 A2    7 A1                 
  0.272   0.347   0.354   0.388   0.516   0.528   0.569   0.605
  3 B2    8 A1    4 B1    5 B1    6 B1    9 A1    4 B2   10 A1                 
  0.607   0.896   1.010   1.186   1.204   1.513   1.615   1.653
  2 A2   11 A1    7 B1    5 B2   12 A1    8 B1   13 A1    3 A2                 
  1.807   1.925   1.934   2.227   2.351   2.985   3.045   3.183
  6 B2    9 B1   14 A1   10 B1   15 A1    7 B2    4 A2   16 A1                 
  3.612   4.014
 17 A1   11 B1                                                                 
 
 Beta MOs, Restricted
 -- Occupied --                  
-19.155  -1.008  -0.543  -0.398  -0.325
  1 A1    2 A1    1 B1    3 A1    1 B2                                         
 -- Virtual --                   
 -0.003   0.065   0.115   0.116   0.160   0.185   0.227   0.244
  4 A1    2 B1    2 B2    5 A1    3 B1    6 A1    1 A2    7 A1                 
  0.272   0.347   0.354   0.388   0.516   0.528   0.569   0.605
  3 B2    8 A1    4 B1    5 B1    6 B1    9 A1    4 B2   10 A1                 
  0.607   0.896   1.010   1.186   1.204   1.513   1.615   1.653
  2 A2   11 A1    7 B1    5 B2   12 A1    8 B1   13 A1    3 A2                 
  1.807   1.925   1.934   2.227   2.351   2.985   3.045   3.183
  6 B2    9 B1   14 A1   10 B1   15 A1    7 B2    4 A2   16 A1                 
  3.612   4.014
 17 A1   11 B1                                                                 
 --------------------------------------------------------------
 
          Ground-State Mulliken Net Atomic Charges

     Atom                 Charge (a.u.)
  ----------------------------------------
      1 O                    -0.237035
      2 H                     0.118518
      3 H                     0.118518
  ----------------------------------------
  Sum of atomic charges =     0.000000

 -----------------------------------------------------------------
                    Cartesian Multipole Moments
 -----------------------------------------------------------------
    Charge (ESU x 10^10)
                -0.0000
    Dipole Moment (Debye)
         X       0.0000      Y      -0.0000      Z      -1.8807
       Tot       1.8807
    Quadrupole Moments (Debye-Ang)
        XX      -4.5132     XY      -0.0000     YY      -7.8339
        XZ      -0.0000     YZ       0.0000     ZZ      -6.5493
    Octopole Moments (Debye-Ang^2)
       XXX       0.0000    XXY      -0.0000    XYY       0.0000
       YYY       0.0000    XXZ      -1.2811    XYZ       0.0000
       YYZ      -0.2172    XZZ       0.0000    YZZ      -0.0000
       ZZZ      -1.0164
    Hexadecapole Moments (Debye-Ang^3)
      XXXX      -6.9585   XXXY      -0.0000   XXYY      -2.8102
      XYYY      -0.0000   YYYY      -8.0833   XXXZ      -0.0000
      XXYZ       0.0000   XYYZ       0.0000   YYYZ       0.0000
      XXZZ      -2.3123   XYZZ      -0.0000   YYZZ      -2.7794
      XZZZ       0.0000   YZZZ       0.0000   ZZZZ      -8.3332
 -----------------------------------------------------------------
 Calculating analytic gradient of the SCF energy
 Gradient of SCF Energy
            1           2           3
    1   0.0000000  -0.0000032   0.0000032
    2   0.0000000   0.0000000  -0.0000000
    3   0.0000027  -0.0000013  -0.0000013
 Max gradient component =       3.165E-06
 RMS gradient           =       1.848E-06
 Gradient time:  CPU 3.55 s  wall 0.46 s
 Geometry Optimization Parameters
   NAtoms,    NIC,     NZ,  NCons,   NDum,   NFix, NCnnct, MaxDiis
        3       9       0       0       0       0       0       0

 Cartesian Hessian Update
 Hessian updated using BFGS update


** GEOMETRY OPTIMIZATION IN DELOCALIZED INTERNAL COORDINATES **
   Searching for a Minimum

   Optimization Cycle:   3

                       Coordinates (Angstroms)
     ATOM                X               Y               Z
      1  O         0.0000000000    0.0000000000    0.1180013866
      2  H        -0.7668144252    0.0000000000   -0.4663942810
      3  H         0.7668144252    0.0000000000   -0.4663942810
   Point Group: c2v   Number of degrees of freedom:     2


   Energy is    -76.380975595

 Hessian updated using BFGS update

  2 Hessian modes will be used to form the next step
  Hessian Eigenvalues:
     0.141477    0.512745

 Minimum search - taking simple RFO step
 Searching for Lamda that Minimizes Along All modes
 Value Taken    Lamda =  -0.00000000
 Step Taken.  Stepsize is  0.000013

                             Maximum     Tolerance    Cnvgd?
         Gradient           0.000004      0.000050     YES
         Displacement       0.000013      0.000050     YES
         Energy change     -0.000000      0.000000     YES


                       Distance Matrix (Angstroms)
             O (  1)   H (  2)
   H (  2)  0.964118
   H (  3)  0.964118  1.533629
 
 Final energy is   -76.3809755950046     


 ******************************
 **  OPTIMIZATION CONVERGED  **
 ******************************

                       Coordinates (Angstroms)
     ATOM                X               Y               Z
      1  O         0.0000000000    0.0000000000    0.1180013866
      2  H        -0.7668144252    0.0000000000   -0.4663942810
      3  H         0.7668144252    0.0000000000   -0.4663942810

Z-matrix Print:
$molecule
0 1
O 
H  1 0.964118
H  1 0.964118 2 105.377345
$end

 
 --------------------------------------------------------------
             Orbital Energies (a.u.) and Symmetries
 --------------------------------------------------------------
 
 Alpha MOs, Restricted
 -- Occupied --                  
-19.155  -1.008  -0.543  -0.398  -0.325
  1 A1    2 A1    1 B1    3 A1    1 B2                                         
 -- Virtual --                   
 -0.003   0.065   0.115   0.116   0.160   0.185   0.227   0.244
  4 A1    2 B1    2 B2    5 A1    3 B1    6 A1    1 A2    7 A1                 
  0.272   0.347   0.354   0.388   0.516   0.528   0.569   0.605
  3 B2    8 A1    4 B1    5 B1    6 B1    9 A1    4 B2   10 A1                 
  0.607   0.896   1.010   1.186   1.204   1.513   1.615   1.653
  2 A2   11 A1    7 B1    5 B2   12 A1    8 B1   13 A1    3 A2                 
  1.807   1.925   1.934   2.227   2.351   2.985   3.045   3.183
  6 B2    9 B1   14 A1   10 B1   15 A1    7 B2    4 A2   16 A1                 
  3.612   4.014
 17 A1   11 B1                                                                 
 
 Beta MOs, Restricted
 -- Occupied --                  
-19.155  -1.008  -0.543  -0.398  -0.325
  1 A1    2 A1    1 B1    3 A1    1 B2                                         
 -- Virtual --                   
 -0.003   0.065   0.115   0.116   0.160   0.185   0.227   0.244
  4 A1    2 B1    2 B2    5 A1    3 B1    6 A1    1 A2    7 A1                 
  0.272   0.347   0.354   0.388   0.516   0.528   0.569   0.605
  3 B2    8 A1    4 B1    5 B1    6 B1    9 A1    4 B2   10 A1                 
  0.607   0.896   1.010   1.186   1.204   1.513   1.615   1.653
  2 A2   11 A1    7 B1    5 B2   12 A1    8 B1   13 A1    3 A2                 
  1.807   1.925   1.934   2.227   2.351   2.985   3.045   3.183
  6 B2    9 B1   14 A1   10 B1   15 A1    7 B2    4 A2   16 A1                 
  3.612   4.014
 17 A1   11 B1                                                                 
 --------------------------------------------------------------
 
          Ground-State Mulliken Net Atomic Charges

     Atom                 Charge (a.u.)
  ----------------------------------------
      1 O                    -0.237035
      2 H                     0.118518
      3 H                     0.118518
  ----------------------------------------
  Sum of atomic charges =     0.000000

 -----------------------------------------------------------------
                    Cartesian Multipole Moments
 -----------------------------------------------------------------
    Charge (ESU x 10^10)
                -0.0000
    Dipole Moment (Debye)
         X       0.0000      Y      -0.0000      Z      -1.8807
       Tot       1.8807
    Quadrupole Moments (Debye-Ang)
        XX      -4.5132     XY      -0.0000     YY      -7.8339
        XZ      -0.0000     YZ       0.0000     ZZ      -6.5493
    Octopole Moments (Debye-Ang^2)
       XXX       0.0000    XXY      -0.0000    XYY       0.0000
       YYY       0.0000    XXZ      -1.2811    XYZ       0.0000
       YYZ      -0.2172    XZZ       0.0000    YZZ      -0.0000
       ZZZ      -1.0164
    Hexadecapole Moments (Debye-Ang^3)
      XXXX      -6.9585   XXXY      -0.0000   XXYY      -2.8102
      XYYY      -0.0000   YYYY      -8.0833   XXXZ      -0.0000
      XXYZ       0.0000   XYYZ       0.0000   YYYZ       0.0000
      XXZZ      -2.3123   XYZZ      -0.0000   YYZZ      -2.7794
      XZZZ       0.0000   YZZZ       0.0000   ZZZZ      -8.3332
 -----------------------------------------------------------------
 Total job time:  3.89s(wall), 30.66s(cpu) 
 Tue Nov  5 14:27:49 2024

        *************************************************************
        *                                                           *
        *  Thank you very much for using Q-Chem.  Have a nice day.  *
        *                                                           *
        *************************************************************



Running Job 2 of 2 water_opt_freq.in
qchem water_opt_freq.in_1305779.1 /data/scratch/water_opt_freq20241105142744/ 1
/opt/qchem/6.2.0/exe/qcprog.exe_s water_opt_freq.in_1305779.1 /data/scratch/water_opt_freq20241105142744/
                  Welcome to Q-Chem
     A Quantum Leap Into The Future Of Chemistry


 Q-Chem 6.2, Q-Chem, Inc., Pleasanton, CA (2024)

 E. Epifanovsky,  A. T. B. Gilbert,  Xintian Feng,  Joonho Lee,  Yuezhi Mao,  
 N. Mardirossian,  P. Pokhilko,  A. White,  M. Wormit,  M. P. Coons,  
 A. L. Dempwolff,  Zhengting Gan,  D. Hait,  P. R. Horn,  L. D. Jacobson,  
 I. Kaliman,  J. Kussmann,  A. W. Lange,  Ka Un Lao,  D. S. Levine,  Jie Liu,  
 S. C. McKenzie,  A. F. Morrison,  K. D. Nanda,  F. Plasser,  D. R. Rehn,  
 M. L. Vidal,  Zhi-Qiang You,  Ying Zhu,  Huseyin Aksu,  B. Alam,  
 B. Albrecht,  A. Aldossary,  E. Alguire,  J. H. Andersen,  
 J. E. Arias-Martinez,  V. Athavale,  D. Barton,  K. Begam,  A. Behn,  
 N. Bellonzi,  Y. A. Bernard,  E. J. Berquist,  H. Burton,  A. Carreras,  
 K. Carter-Fenk,  Mathew Chow,  Romit Chakraborty,  Chandrima Chakravarty,  
 Junhan Chen,  A. D. Chien,  K. D. Closser,  V. Cofer-Shabica,  L. Cunha,  
 S. Dasgupta,  Jia Deng,  Joseph Dickinson,  M. de Wergifosse,  
 M. Diedenhofen,  Hainam Do,  Wenjie Dou,  S. Ehlert,  Po-Tung Fang,  
 S. Fatehi,  Qingguo Feng,  Jonathan Fetherolf,  T. Friedhoff,  
 Thomas Froitzheim,  Sarai Folkestad,  B. Ganoe,  J. Gayvert,  Qinghui Ge,  
 G. Gidofalvi,  M. Gimferrer,  M. Goldey,  Montgomery Gray,  J. Gomes,  
 C. Gonzalez-Espinoza,  S. Gulania,  A. Gunina,  J. A. Gyamfi,  
 M. W. D. Hanson-Heine,  P. H. P. Harbach,  A. W. Hauser,  M. F. Herbst,  
 M. Hernandez Vera,  M. Hodecker,  Z. C. Holden,  S. Houck,  Xunkun Huang,  
 Kerwin Hui,  B. C. Huynh,  K. Ikeda,  M. Ivanov,  Nayanthara K. Jayadev,  
 Hyunjun Ji,  Zuxin Jin,  Hanjie Jiang,  Subrata Jana,  B. Kaduk,  
 S. Kaehler,  R. Kang,  K. Khistyaev,  Jaehoon Kim,  Yongbin Kim,  
 P. Klunzinger,  Z. Koczor-Benda,  Joong Hoon Koh,  D. Kosenkov,  
 Saikiran Kotaru,  L. Koulias,  T. Kowalczyk,  C. M. Krauter,  K. Kue,  
 A. Kunitsa,  T. Kus,  A. Landau,  K. V. Lawler,  D. Lefrancois,  S. Lehtola,  
 Rain Li,  Shaozhi Li,  Tao E. Li,  Yi-Pei Li,  Jiashu Liang,  M. Liebenthal,  
 Hung-Hsuan Lin,  You-Sheng Lin,  Fenglai Liu,  Kuan-Yu Liu,  Xiao Liu,  
 M. Loipersberger,  A. Luenser,  C. Malbon,  Aniket Mandal,  Manisha,  
 A. Manjanath,  P. Manohar,  E. Mansoor,  S. F. Manzer,  Shan-Ping Mao,  
 A. V. Marenich,  T. Markovich,  S. Mason,  F. Matz,  S. A. Maurer,  
 Samuel May,  Alexandra McIsaac,  P. F. McLaughlin,  M. F. S. J. Menger,  
 J.-M. Mewes,  S. A. Mewes,  P. Morgante,  Mohammad Mostafanejad,  
 Madhubani Mukherjee,  J. W. Mullinax,  Quyen Nguyen,  Avik Kumar Ojha,  
 K. J. Oosterbaan,  Eno Paenurk,  Xiaoliang Pan,  G. Paran,  V. Parravicini,  
 Alexander C. Paul,  Suranjan K. Paul,  F. Pavosevic,  Zheng Pei,  S. Prager,  
 E. I. Proynov,  E. Ramos,  B. Rana,  A. E. Rask,  A. Rettig,  R. M. Richard,  
 F. Rob,  E. Rossomme,  T. Scheele,  M. Scheurer,  M. Schneider,  
 P. E. Schneider,  Tim K. Schramm,  N. Sergueev,  S. M. Sharada,  
 Hengyuan Shen,  W. Skomorowski,  D. W. Small,  C. J. Stein,  
 Alistair J. Sterling,  Yingli Su,  Yu-Chuan Su,  E. J. Sundstrom,  
 J. Talbot,  Zhen Tao,  J. Thirman,  Hung-Yi Tsai,  T. Tsuchimochi,  
 N. M. Tubman,  C. Utku,  S. P. Veccham,  O. Vydrov,  Rahel Weiss,  
 J. Wenzel,  Jonathan Wong,  J. Witte,  H. Wu,  Yanze Wu,  A. Yamada,  
 Chou-Hsun Yang,  Kun Yao,  S. Yeganeh,  S. R. Yost,  Qi Yu,  A. Zech,  
 F. Zeller,  Chongxiao Zhao,  Igor Ying Zhang,  Xing Zhang,  Yu Zhang,  
 D. Zuev,  A. Aspuru-Guzik,  A. T. Bell,  N. A. Besley,  K. B. Bravaya,  
 B. R. Brooks,  D. Casanova,  Jeng-Da Chai,  Hsing-Ta Chen,  S. Coriani,  
 C. J. Cramer,  A. E. DePrince, III,  R. A. DiStasio Jr.,  A. Dreuw,  
 B. D. Dunietz,  T. R. Furlani,  W. A. Goddard III,  S. Grimme,  
 S. Hammes-Schiffer,  T. Head-Gordon,  W. J. Hehre,  Chao-Ping Hsu,  
 T.-C. Jagau,  Yousung Jung,  A. Klamt,  Jing Kong,  D. S. Lambrecht,  
 Xiangyuan Li,  WanZhen Liang,  N. J. Mayhall,  C. W. McCurdy,  J. B. Neaton,  
 T. Neudecker,  C. Ochsenfeld,  J. A. Parkhill,  R. Peverati,  
 V. A. Rassolov,  Haisheng Ren,  Yihan Shao,  L. V. Slipchenko,  
 R. P. Steele,  J. E. Subotnik,  A. J. W. Thom,  A. Tkatchenko,  
 D. G. Truhlar,  T. Van Voorhis,  Fan Wang,  T. A. Wesolowski,  K. B. Whaley,  
 H. L. Woodcock III,  P. M. Zimmerman,  S. Faraji,  P. M. W. Gill,  
 M. Head-Gordon,  J. M. Herbert,  A. I. Krylov

 Contributors to earlier versions of Q-Chem not listed above: 
 R. D. Adamson,  B. Austin,  R. Baer,  J. Baker,  G. J. O. Beran,  
 K. Brandhorst,  S. T. Brown,  E. F. C. Byrd,  Arup K. Chakraborty,  
 G. K. L. Chan,  Chun-Min Chang,  Yunqing Chen,  C.-L. Cheng,  
 Siu Hung Chien,  D. M. Chipman,  D. L. Crittenden,  H. Dachsel,  
 R. J. Doerksen,  A. D. Dutoi,  R. G. Edgar,  J. Fosso-Tande,  
 L. Fusti-Molnar,  D. Ghosh,  A. Ghysels,  A. Golubeva-Zadorozhnaya,  
 J. Gonthier,  M. S. Gordon,  S. R. Gwaltney,  G. Hawkins,  J. E. Herr,  
 A. Heyden,  S. Hirata,  E. G. Hohenstein,  G. Kedziora,  F. J. Keil,  
 C. Kelley,  Jihan Kim,  R. A. King,  R. Z. Khaliullin,  P. P. Korambath,  
 W. Kurlancheek,  A. Laurent,  A. M. Lee,  M. S. Lee,  S. V. Levchenko,  
 Ching Yeh Lin,  D. Liotard,  E. Livshits,  R. C. Lochan,  I. Lotan,  
 L. A. Martinez-Martinez,  P. E. Maslen,  N. Nair,  D. P. O'Neill,  
 D. Neuhauser,  E. Neuscamman,  C. M. Oana,  R. Olivares-Amaya,  R. Olson,  
 T. M. Perrine,  B. Peters,  P. A. Pieniazek,  A. Prociuk,  Y. M. Rhee,  
 J. Ritchie,  M. A. Rohrdanz,  E. Rosta,  N. J. Russ,  H. F. Schaefer III,  
 M. W. Schmidt,  N. E. Schultz,  S. Sharma,  N. Shenvi,  C. D. Sherrill,  
 A. C. Simmonett,  A. Sodt,  T. Stein,  D. Stuck,  K. S. Thanthiriwatte,  
 V. Vanovschi,  L. Vogt,  Tao Wang,  A. Warshel,  M. A. Watson,  
 C. F. Williams,  Q. Wu,  X. Xu,  Jun Yang,  W. Zhang,  Yan Zhao

   Please cite Q-Chem as follows:
  "Software for the frontiers of quantum chemistry:
   An overview of developments in the Q-Chem 5 package"
   J. Chem. Phys. 155, 084801 (2021)
   https://doi.org/10.1063/5.0055522 (open access)

 Q-Chem 6.2.0 for Intel X86 EM64T Linux

 Parts of Q-Chem use Armadillo 9.900.5 (Nocturnal Misbehaviour).
 http://arma.sourceforge.net/

 Q-Chem begins on Tue Nov  5 14:27:49 2024  

 Host: 
0

     Scratch files written to /data/scratch/water_opt_freq20241105142744//
 May224 |scratch|qcdevops|jenkins|workspace|build_RNUM -1
 Processing $rem in /opt/qchem/6.2.0/config/preferences:
 Processing $rem in /home/ymao/.qchemrc:

 Checking the input file for inconsistencies... 	...done.

--------------------------------------------------------------
User input:
--------------------------------------------------------------

$molecule
read
$end

$rem
JOBTYPE  FREQ
GEN_SCFMAN  TRUE
METHOD  B3LYP
DFT_D  D3_BJ
BASIS  DEF2-SVPD
UNRESTRICTED  FALSE
MAX_SCF_CYCLES  2000
THRESH  14
SCF_CONVERGENCE  9
MEM_TOTAL  8000
MEM_STATIC  2000
SYMMETRY  FALSE
SYM_IGNORE  FALSE
SCF_ALGORITHM  DIIS
BASIS_LIN_DEP_THRESH  6
IDERIV  1
XC_GRID  000075000302
NL_GRID  1
FD_MAT_VEC_PROD  FALSE
GEOM_OPT_TOL_GRADIENT  50
GEOM_OPT_TOL_DISPLACEMENT  50
GEOM_OPT_TOL_ENERGY  10
GEOM_OPT_DRIVER  OPTIMIZE
GEOM_OPT_MAX_CYCLES  200
$end
--------------------------------------------------------------
 Adding empirical dispersion correction 
 ----------------------------------------------------------------
 Doing -D3(BJ) with
 s6  =   1.00000
 s8  =   1.98890
 a1  =   0.39810
 a2  =   4.42110
 ----------------------------------------------------------------
 -D3 energy without 3body term =     -0.0005738203 hartrees
 ----------------------------------------------------------------
             Standard Nuclear Orientation (Angstroms)
    I     Atom           X                Y                Z
 ----------------------------------------------------------------
    1      O       0.0000000000     0.0000000000     0.1168791335
    2      H      -0.7668144252    -0.0000000000    -0.4675165341
    3      H       0.7668144252     0.0000000000    -0.4675165341
 ----------------------------------------------------------------
 Molecular Point Group                 C2v   NOp =  4
 Largest Abelian Subgroup              C2v   NOp =  4
 Nuclear Repulsion Energy =           9.12642859 hartrees
 There are        5 alpha and        5 beta electrons
 Requested basis set is def2-SVPD
 There are 17 shells and 39 basis functions

 Total QAlloc Memory Limit   8000 MB
 Mega-Array Size      1956 MB
 MEM_STATIC part      2000 MB


                       Distance Matrix (Angstroms)
             O (  1)   H (  2)
   H (  2)  0.964118
   H (  3)  0.964118  1.533629
 
 A cutoff of  1.0D-14 yielded    153 shell pairs
 There are       821 function pairs (       912 Cartesian)
 Smallest overlap matrix eigenvalue = 5.38E-03
 Guess from superposition of atomic densities
 Warning:  Energy on first SCF cycle will be non-variational
 SAD guess density has 10.000000 electrons

 -----------------------------------------------------------------------
  General SCF calculation program by
  Eric Jon Sundstrom, Paul Horn, Yuezhi Mao, Dmitri Zuev, Alec White,
  David Stuck, Shaama M.S., Shane Yost, Joonho Lee, David Small,
  Daniel Levine, Susi Lehtola, Hugh Burton, Evgeny Epifanovsky,
  Bang C. Huynh
 -----------------------------------------------------------------------
 Exchange:     0.2000 Hartree-Fock + 0.0800 Slater + 0.7200 B88
 Correlation:  0.1900 VWN1RPA + 0.8100 LYP
 Using Euler-Maclaurin-Lebedev (75,302) quadrature formula
 Dispersion:   Grimme D3
 using 8 threads for integral computing
 -------------------------------------------------------
 OpenMP Integral computing Module                
 Release: version 1.0, May 2013, Q-Chem Inc. Pittsburgh 
 -------------------------------------------------------
 A restricted SCF calculation will be
 performed using DIIS
 SCF converges when DIIS error is below 1.0e-09
 ---------------------------------------
  Cycle       Energy         DIIS error
 ---------------------------------------
    1     -76.3366057263      8.07e-02  
    2     -76.3076029115      2.23e-02  
    3     -76.2115672991      3.41e-02  
    4     -76.3809022880      6.61e-04  
    5     -76.3809721262      1.63e-04  
    6     -76.3809754656      3.00e-05  
    7     -76.3809755949      4.78e-07  
    8     -76.3809755950      5.69e-08  
    9     -76.3809755950      3.35e-09  
   10     -76.3809755950      2.32e-10  Convergence criterion met
 ---------------------------------------
 SCF time:   CPU 6.83s  wall 1.00s 
 SCF   energy =   -76.38097559
 Total energy =   -76.38097559
 
 --------------------------------------------------------------
             Orbital Energies (a.u.) and Symmetries
 --------------------------------------------------------------
 
 Alpha MOs, Restricted
 -- Occupied --                  
-19.155  -1.008  -0.543  -0.398  -0.325
  1 A1    2 A1    1 B1    3 A1    1 B2                                         
 -- Virtual --                   
 -0.003   0.065   0.115   0.116   0.160   0.185   0.227   0.244
  4 A1    2 B1    2 B2    5 A1    3 B1    6 A1    1 A2    7 A1                 
  0.272   0.347   0.354   0.388   0.516   0.528   0.569   0.605
  3 B2    8 A1    4 B1    5 B1    6 B1    9 A1    4 B2   10 A1                 
  0.607   0.896   1.010   1.186   1.204   1.513   1.615   1.653
  2 A2   11 A1    7 B1    5 B2   12 A1    8 B1   13 A1    3 A2                 
  1.807   1.925   1.934   2.227   2.351   2.985   3.045   3.183
  6 B2    9 B1   14 A1   10 B1   15 A1    7 B2    4 A2   16 A1                 
  3.612   4.014
 17 A1   11 B1                                                                 
 
 Beta MOs, Restricted
 -- Occupied --                  
-19.155  -1.008  -0.543  -0.398  -0.325
  1 A1    2 A1    1 B1    3 A1    1 B2                                         
 -- Virtual --                   
 -0.003   0.065   0.115   0.116   0.160   0.185   0.227   0.244
  4 A1    2 B1    2 B2    5 A1    3 B1    6 A1    1 A2    7 A1                 
  0.272   0.347   0.354   0.388   0.516   0.528   0.569   0.605
  3 B2    8 A1    4 B1    5 B1    6 B1    9 A1    4 B2   10 A1                 
  0.607   0.896   1.010   1.186   1.204   1.513   1.615   1.653
  2 A2   11 A1    7 B1    5 B2   12 A1    8 B1   13 A1    3 A2                 
  1.807   1.925   1.934   2.227   2.351   2.985   3.045   3.183
  6 B2    9 B1   14 A1   10 B1   15 A1    7 B2    4 A2   16 A1                 
  3.612   4.014
 17 A1   11 B1                                                                 
 --------------------------------------------------------------
 
          Ground-State Mulliken Net Atomic Charges

     Atom                 Charge (a.u.)
  ----------------------------------------
      1 O                    -0.237035
      2 H                     0.118518
      3 H                     0.118518
  ----------------------------------------
  Sum of atomic charges =     0.000000

 -----------------------------------------------------------------
                    Cartesian Multipole Moments
 -----------------------------------------------------------------
    Charge (ESU x 10^10)
                -0.0000
    Dipole Moment (Debye)
         X      -0.0000      Y      -0.0000      Z      -1.8807
       Tot       1.8807
    Quadrupole Moments (Debye-Ang)
        XX      -4.5132     XY      -0.0000     YY      -7.8339
        XZ      -0.0000     YZ      -0.0000     ZZ      -6.5451
    Octopole Moments (Debye-Ang^2)
       XXX      -0.0000    XXY      -0.0000    XYY      -0.0000
       YYY      -0.0000    XXZ      -1.2761    XYZ      -0.0000
       YYZ      -0.2084    XZZ       0.0000    YZZ      -0.0000
       ZZZ      -0.9944
    Hexadecapole Moments (Debye-Ang^3)
      XXXX      -6.9585   XXXY      -0.0000   XXYY      -2.8102
      XYYY      -0.0000   YYYY      -8.0833   XXXZ      -0.0000
      XXYZ      -0.0000   XYYZ      -0.0000   YYYZ       0.0000
      XXZZ      -2.3094   XYZZ      -0.0000   YYZZ      -2.7789
      XZZZ      -0.0000   YZZZ       0.0000   ZZZZ      -8.3287
 -----------------------------------------------------------------
 Calculating analytic gradient of the SCF energy
 Gradient of SCF Energy
            1           2           3
    1   0.0000000  -0.0000032   0.0000032
    2   0.0000000  -0.0000000   0.0000000
    3   0.0000027  -0.0000013  -0.0000013
 Max gradient component =       3.165E-06
 RMS gradient           =       1.848E-06
 Gradient time:  CPU 3.63 s  wall 0.45 s


 ##########################################
 # Starting finite difference calculation #
 ##########################################

 Finite diff step size:  1.88973e-03 a.u.
 Adding empirical dispersion correction 
 ----------------------------------------------------------------
 Doing -D3(BJ) with
 s6  =   1.00000
 s8  =   1.98890
 a1  =   0.39810
 a2  =   4.42110
 ----------------------------------------------------------------
 -D3 energy without 3body term =     -0.0005738203 hartrees
 ----------------------------------------------------------------
             Standard Nuclear Orientation (Angstroms)
    I     Atom           X                Y                Z
 ----------------------------------------------------------------
    1      O       0.0010000000     0.0000000000     0.1168791335
    2      H      -0.7668144252    -0.0000000000    -0.4675165341
    3      H       0.7668144252     0.0000000000    -0.4675165341
 ----------------------------------------------------------------
 Nuclear Repulsion Energy =           9.12643283 hartrees
 There are        5 alpha and        5 beta electrons

                       Distance Matrix (Angstroms)
             O (  1)   H (  2)
   H (  2)  0.964913
   H (  3)  0.963322  1.533629
 
 Requested basis set is def2-SVPD
 There are 17 shells and 39 basis functions
 A cutoff of  1.0D-14 yielded    153 shell pairs
 There are       821 function pairs (       912 Cartesian)
 Smallest overlap matrix eigenvalue = 5.38E-03
 Guess MOs from SCF MO coefficient file

 -----------------------------------------------------------------------
  General SCF calculation program by
  Eric Jon Sundstrom, Paul Horn, Yuezhi Mao, Dmitri Zuev, Alec White,
  David Stuck, Shaama M.S., Shane Yost, Joonho Lee, David Small,
  Daniel Levine, Susi Lehtola, Hugh Burton, Evgeny Epifanovsky,
  Bang C. Huynh
 -----------------------------------------------------------------------
 Exchange:     0.2000 Hartree-Fock + 0.0800 Slater + 0.7200 B88
 Correlation:  0.1900 VWN1RPA + 0.8100 LYP
 Using Euler-Maclaurin-Lebedev (75,302) quadrature formula
 Dispersion:   Grimme D3
 A restricted SCF calculation will be
 performed using DIIS
 SCF converges when DIIS error is below 1.0e-09
 ---------------------------------------
  Cycle       Energy         DIIS error
 ---------------------------------------
    1     -76.3809738776      5.13e-05  
    2     -76.3809743436      1.13e-05  
    3     -76.3809743622      4.11e-06  
    4     -76.3809743650      1.73e-07  
    5     -76.3809743650      9.36e-08  
    6     -76.3809743650      2.65e-08  
    7     -76.3809743650      5.90e-10  Convergence criterion met
 ---------------------------------------
 SCF time:   CPU 4.92s  wall 1.00s 
 SCF   energy =   -76.38097437
 Total energy =   -76.38097437
 
 --------------------------------------------------------------
 
                    Orbital Energies (a.u.)
 --------------------------------------------------------------
 
 Alpha MOs
 -- Occupied --
-19.1547  -1.0077  -0.5428  -0.3977  -0.3255
 -- Virtual --
 -0.0031   0.0651   0.1149   0.1164   0.1603   0.1854   0.2275   0.2444
  0.2716   0.3472   0.3542   0.3883   0.5163   0.5284   0.5686   0.6050
  0.6073   0.8962   1.0103   1.1861   1.2044   1.5125   1.6154   1.6533
  1.8070   1.9253   1.9337   2.2269   2.3512   2.9851   3.0455   3.1833
  3.6118   4.0144
 --------------------------------------------------------------
 
          Ground-State Mulliken Net Atomic Charges

     Atom                 Charge (a.u.)
  ----------------------------------------
      1 O                    -0.237034
      2 H                     0.119216
      3 H                     0.117819
  ----------------------------------------
  Sum of atomic charges =     0.000000

 -----------------------------------------------------------------
                    Cartesian Multipole Moments
 -----------------------------------------------------------------
    Charge (ESU x 10^10)
                -0.0000
    Dipole Moment (Debye)
         X      -0.0025      Y       0.0000      Z      -1.8807
       Tot       1.8807
    Quadrupole Moments (Debye-Ang)
        XX      -4.5132     XY       0.0000     YY      -7.8339
        XZ      -0.0006     YZ      -0.0000     ZZ      -6.5451
    Octopole Moments (Debye-Ang^2)
       XXX      -0.0153    XXY       0.0000    XYY      -0.0058
       YYY       0.0000    XXZ      -1.2761    XYZ       0.0000
       YYZ      -0.2084    XZZ      -0.0054    YZZ       0.0000
       ZZZ      -0.9944
    Hexadecapole Moments (Debye-Ang^3)
      XXXX      -6.9585   XXXY       0.0000   XXYY      -2.8102
      XYYY       0.0000   YYYY      -8.0833   XXXZ      -0.0030
      XXYZ      -0.0000   XYYZ      -0.0013   YYYZ      -0.0000
      XXZZ      -2.3094   XYZZ       0.0000   YYZZ      -2.7789
      XZZZ      -0.0036   YZZZ      -0.0000   ZZZZ      -8.3287
 -----------------------------------------------------------------
 Calculating analytic gradient of the SCF energy
 Gradient of SCF Energy
            1           2           3
    1   0.0013017  -0.0006527  -0.0006491
    2   0.0000000  -0.0000000   0.0000000
    3  -0.0000006  -0.0004956   0.0004962
 Max gradient component =       1.302E-03
 RMS gradient           =       5.806E-04
 Gradient time:  CPU 3.62 s  wall 0.45 s
 Adding empirical dispersion correction 
 ----------------------------------------------------------------
 Doing -D3(BJ) with
 s6  =   1.00000
 s8  =   1.98890
 a1  =   0.39810
 a2  =   4.42110
 ----------------------------------------------------------------
 -D3 energy without 3body term =     -0.0005738203 hartrees
 ----------------------------------------------------------------
             Standard Nuclear Orientation (Angstroms)
    I     Atom           X                Y                Z
 ----------------------------------------------------------------
    1      O       0.0000000000     0.0010000000     0.1168791335
    2      H      -0.7668144252    -0.0000000000    -0.4675165341
    3      H       0.7668144252     0.0000000000    -0.4675165341
 ----------------------------------------------------------------
 Nuclear Repulsion Energy =           9.12642386 hartrees
 There are        5 alpha and        5 beta electrons

                       Distance Matrix (Angstroms)
             O (  1)   H (  2)
   H (  2)  0.964118
   H (  3)  0.964118  1.533629
 
 Requested basis set is def2-SVPD
 There are 17 shells and 39 basis functions
 A cutoff of  1.0D-14 yielded    153 shell pairs
 There are       821 function pairs (       912 Cartesian)
 Smallest overlap matrix eigenvalue = 5.38E-03
 Guess MOs from SCF MO coefficient file

 -----------------------------------------------------------------------
  General SCF calculation program by
  Eric Jon Sundstrom, Paul Horn, Yuezhi Mao, Dmitri Zuev, Alec White,
  David Stuck, Shaama M.S., Shane Yost, Joonho Lee, David Small,
  Daniel Levine, Susi Lehtola, Hugh Burton, Evgeny Epifanovsky,
  Bang C. Huynh
 -----------------------------------------------------------------------
 Exchange:     0.2000 Hartree-Fock + 0.0800 Slater + 0.7200 B88
 Correlation:  0.1900 VWN1RPA + 0.8100 LYP
 Using Euler-Maclaurin-Lebedev (75,302) quadrature formula
 Dispersion:   Grimme D3
 A restricted SCF calculation will be
 performed using DIIS
 SCF converges when DIIS error is below 1.0e-09
 ---------------------------------------
  Cycle       Energy         DIIS error
 ---------------------------------------
    1     -76.3809747992      6.53e-05  
    2     -76.3809755692      1.25e-05  
    3     -76.3809755906      4.93e-06  
    4     -76.3809755947      2.58e-07  
    5     -76.3809755947      7.60e-08  
    6     -76.3809755947      4.17e-08  
    7     -76.3809755947      7.61e-09  
    8     -76.3809755947      4.37e-10  Convergence criterion met
 ---------------------------------------
 SCF time:   CPU 5.50s  wall 1.00s 
 SCF   energy =   -76.38097559
 Total energy =   -76.38097559
 
 --------------------------------------------------------------
 
                    Orbital Energies (a.u.)
 --------------------------------------------------------------
 
 Alpha MOs
 -- Occupied --
-19.1547  -1.0077  -0.5428  -0.3977  -0.3255
 -- Virtual --
 -0.0031   0.0651   0.1149   0.1164   0.1603   0.1854   0.2275   0.2444
  0.2716   0.3472   0.3542   0.3883   0.5163   0.5284   0.5686   0.6050
  0.6073   0.8962   1.0103   1.1861   1.2044   1.5125   1.6154   1.6533
  1.8070   1.9253   1.9337   2.2269   2.3512   2.9851   3.0455   3.1833
  3.6118   4.0144
 --------------------------------------------------------------
 
          Ground-State Mulliken Net Atomic Charges

     Atom                 Charge (a.u.)
  ----------------------------------------
      1 O                    -0.237036
      2 H                     0.118518
      3 H                     0.118518
  ----------------------------------------
  Sum of atomic charges =     0.000000

 -----------------------------------------------------------------
                    Cartesian Multipole Moments
 -----------------------------------------------------------------
    Charge (ESU x 10^10)
                -0.0000
    Dipole Moment (Debye)
         X       0.0000      Y      -0.0032      Z      -1.8807
       Tot       1.8807
    Quadrupole Moments (Debye-Ang)
        XX      -4.5132     XY       0.0000     YY      -7.8339
        XZ       0.0000     YZ       0.0007     ZZ      -6.5451
    Octopole Moments (Debye-Ang^2)
       XXX       0.0000    XXY      -0.0058    XYY       0.0000
       YYY      -0.0199    XXZ      -1.2761    XYZ       0.0000
       YYZ      -0.2084    XZZ       0.0000    YZZ      -0.0062
       ZZZ      -0.9944
    Hexadecapole Moments (Debye-Ang^3)
      XXXX      -6.9585   XXXY       0.0000   XXYY      -2.8102
      XYYY       0.0000   YYYY      -8.0834   XXXZ       0.0000
      XXYZ      -0.0002   XYYZ       0.0000   YYYZ      -0.0009
      XXZZ      -2.3094   XYZZ       0.0000   YYZZ      -2.7789
      XZZZ       0.0000   YZZZ      -0.0008   ZZZZ      -8.3287
 -----------------------------------------------------------------
 Calculating analytic gradient of the SCF energy
 Gradient of SCF Energy
            1           2           3
    1   0.0000000  -0.0000035   0.0000035
    2   0.0000003  -0.0000002  -0.0000002
    3   0.0000034  -0.0000017  -0.0000017
 Max gradient component =       3.498E-06
 RMS gradient           =       2.156E-06
 Gradient time:  CPU 3.61 s  wall 0.45 s
 Adding empirical dispersion correction 
 ----------------------------------------------------------------
 Doing -D3(BJ) with
 s6  =   1.00000
 s8  =   1.98890
 a1  =   0.39810
 a2  =   4.42110
 ----------------------------------------------------------------
 -D3 energy without 3body term =     -0.0005738254 hartrees
 ----------------------------------------------------------------
             Standard Nuclear Orientation (Angstroms)
    I     Atom           X                Y                Z
 ----------------------------------------------------------------
    1      O       0.0000000000     0.0000000000     0.1178791335
    2      H      -0.7668144252    -0.0000000000    -0.4675165341
    3      H       0.7668144252     0.0000000000    -0.4675165341
 ----------------------------------------------------------------
 Nuclear Repulsion Energy =           9.12090781 hartrees
 There are        5 alpha and        5 beta electrons

                       Distance Matrix (Angstroms)
             O (  1)   H (  2)
   H (  2)  0.964724
   H (  3)  0.964724  1.533629
 
 Requested basis set is def2-SVPD
 There are 17 shells and 39 basis functions
 A cutoff of  1.0D-14 yielded    153 shell pairs
 There are       821 function pairs (       912 Cartesian)
 Smallest overlap matrix eigenvalue = 5.38E-03
 Guess MOs from SCF MO coefficient file

 -----------------------------------------------------------------------
  General SCF calculation program by
  Eric Jon Sundstrom, Paul Horn, Yuezhi Mao, Dmitri Zuev, Alec White,
  David Stuck, Shaama M.S., Shane Yost, Joonho Lee, David Small,
  Daniel Levine, Susi Lehtola, Hugh Burton, Evgeny Epifanovsky,
  Bang C. Huynh
 -----------------------------------------------------------------------
 Exchange:     0.2000 Hartree-Fock + 0.0800 Slater + 0.7200 B88
 Correlation:  0.1900 VWN1RPA + 0.8100 LYP
 Using Euler-Maclaurin-Lebedev (75,302) quadrature formula
 Dispersion:   Grimme D3
 A restricted SCF calculation will be
 performed using DIIS
 SCF converges when DIIS error is below 1.0e-09
 ---------------------------------------
  Cycle       Energy         DIIS error
 ---------------------------------------
    1     -76.3809740758      6.16e-05  
    2     -76.3809747543      1.68e-05  
    3     -76.3809747364      2.04e-05  
    4     -76.3809747935      2.45e-06  
    5     -76.3809747943      1.13e-07  
    6     -76.3809747943      8.28e-09  
    7     -76.3809747943      7.53e-10  Convergence criterion met
 ---------------------------------------
 SCF time:   CPU 4.84s  wall 0.00s 
 SCF   energy =   -76.38097479
 Total energy =   -76.38097479
 
 --------------------------------------------------------------
 
                    Orbital Energies (a.u.)
 --------------------------------------------------------------
 
 Alpha MOs
 -- Occupied --
-19.1548  -1.0075  -0.5424  -0.3978  -0.3255
 -- Virtual --
 -0.0032   0.0651   0.1149   0.1165   0.1602   0.1855   0.2275   0.2441
  0.2714   0.3470   0.3542   0.3881   0.5162   0.5285   0.5688   0.6051
  0.6072   0.8956   1.0098   1.1858   1.2043   1.5125   1.6152   1.6531
  1.8068   1.9254   1.9334   2.2253   2.3501   2.9851   3.0448   3.1828
  3.6103   4.0138
 --------------------------------------------------------------
 
          Ground-State Mulliken Net Atomic Charges

     Atom                 Charge (a.u.)
  ----------------------------------------
      1 O                    -0.237990
      2 H                     0.118995
      3 H                     0.118995
  ----------------------------------------
  Sum of atomic charges =     0.000000

 -----------------------------------------------------------------
                    Cartesian Multipole Moments
 -----------------------------------------------------------------
    Charge (ESU x 10^10)
                -0.0000
    Dipole Moment (Debye)
         X       0.0000      Y       0.0000      Z      -1.8825
       Tot       1.8825
    Quadrupole Moments (Debye-Ang)
        XX      -4.5158     XY       0.0000     YY      -7.8353
        XZ      -0.0000     YZ      -0.0000     ZZ      -6.5457
    Octopole Moments (Debye-Ang^2)
       XXX       0.0000    XXY       0.0000    XYY       0.0000
       YYY       0.0000    XXZ      -1.2810    XYZ       0.0000
       YYZ      -0.2143    XZZ       0.0000    YZZ       0.0000
       ZZZ      -1.0108
    Hexadecapole Moments (Debye-Ang^3)
      XXXX      -6.9659   XXXY       0.0000   XXYY      -2.8116
      XYYY       0.0000   YYYY      -8.0856   XXXZ      -0.0000
      XXYZ      -0.0000   XYYZ       0.0000   YYYZ      -0.0000
      XXZZ      -2.3115   XYZZ       0.0000   YYZZ      -2.7807
      XZZZ      -0.0000   YZZZ      -0.0000   ZZZZ      -8.3369
 -----------------------------------------------------------------
 Calculating analytic gradient of the SCF energy
 Gradient of SCF Energy
            1           2           3
    1  -0.0000000  -0.0003897   0.0003897
    2   0.0000000  -0.0000000  -0.0000000
    3   0.0008445  -0.0004223  -0.0004223
 Max gradient component =       8.445E-04
 RMS gradient           =       3.907E-04
 Gradient time:  CPU 3.61 s  wall 0.45 s
 Adding empirical dispersion correction 
 ----------------------------------------------------------------
 Doing -D3(BJ) with
 s6  =   1.00000
 s8  =   1.98890
 a1  =   0.39810
 a2  =   4.42110
 ----------------------------------------------------------------
 -D3 energy without 3body term =     -0.0005738152 hartrees
 ----------------------------------------------------------------
             Standard Nuclear Orientation (Angstroms)
    I     Atom           X                Y                Z
 ----------------------------------------------------------------
    1      O       0.0000000000     0.0000000000     0.1158791335
    2      H      -0.7668144252    -0.0000000000    -0.4675165341
    3      H       0.7668144252     0.0000000000    -0.4675165341
 ----------------------------------------------------------------
 Nuclear Repulsion Energy =           9.13195033 hartrees
 There are        5 alpha and        5 beta electrons

                       Distance Matrix (Angstroms)
             O (  1)   H (  2)
   H (  2)  0.963512
   H (  3)  0.963512  1.533629
 
 Requested basis set is def2-SVPD
 There are 17 shells and 39 basis functions
 A cutoff of  1.0D-14 yielded    153 shell pairs
 There are       821 function pairs (       912 Cartesian)
 Smallest overlap matrix eigenvalue = 5.38E-03
 Guess MOs from SCF MO coefficient file

 -----------------------------------------------------------------------
  General SCF calculation program by
  Eric Jon Sundstrom, Paul Horn, Yuezhi Mao, Dmitri Zuev, Alec White,
  David Stuck, Shaama M.S., Shane Yost, Joonho Lee, David Small,
  Daniel Levine, Susi Lehtola, Hugh Burton, Evgeny Epifanovsky,
  Bang C. Huynh
 -----------------------------------------------------------------------
 Exchange:     0.2000 Hartree-Fock + 0.0800 Slater + 0.7200 B88
 Correlation:  0.1900 VWN1RPA + 0.8100 LYP
 Using Euler-Maclaurin-Lebedev (75,302) quadrature formula
 Dispersion:   Grimme D3
 A restricted SCF calculation will be
 performed using DIIS
 SCF converges when DIIS error is below 1.0e-09
 ---------------------------------------
  Cycle       Energy         DIIS error
 ---------------------------------------
    1     -76.3809731611      9.32e-05  
    2     -76.3809746596      3.20e-05  
    3     -76.3809746237      3.60e-05  
    4     -76.3809748017      3.68e-06  
    5     -76.3809748037      1.37e-07  
    6     -76.3809748037      9.82e-09  
    7     -76.3809748037      1.08e-09  
    8     -76.3809748037      7.60e-11  Convergence criterion met
 ---------------------------------------
 SCF time:   CPU 5.50s  wall 1.00s 
 SCF   energy =   -76.38097480
 Total energy =   -76.38097480
 
 --------------------------------------------------------------
 
                    Orbital Energies (a.u.)
 --------------------------------------------------------------
 
 Alpha MOs
 -- Occupied --
-19.1546  -1.0079  -0.5432  -0.3975  -0.3255
 -- Virtual --
 -0.0030   0.0652   0.1149   0.1164   0.1605   0.1854   0.2274   0.2446
  0.2718   0.3473   0.3542   0.3885   0.5164   0.5283   0.5684   0.6049
  0.6074   0.8968   1.0108   1.1864   1.2045   1.5126   1.6157   1.6536
  1.8072   1.9252   1.9340   2.2285   2.3522   2.9852   3.0462   3.1838
  3.6133   4.0150
 --------------------------------------------------------------
 
          Ground-State Mulliken Net Atomic Charges

     Atom                 Charge (a.u.)
  ----------------------------------------
      1 O                    -0.236079
      2 H                     0.118040
      3 H                     0.118040
  ----------------------------------------
  Sum of atomic charges =     0.000000

 -----------------------------------------------------------------
                    Cartesian Multipole Moments
 -----------------------------------------------------------------
    Charge (ESU x 10^10)
                 0.0000
    Dipole Moment (Debye)
         X       0.0000      Y       0.0000      Z      -1.8789
       Tot       1.8789
    Quadrupole Moments (Debye-Ang)
        XX      -4.5105     XY       0.0000     YY      -7.8326
        XZ      -0.0000     YZ      -0.0000     ZZ      -6.5445
    Octopole Moments (Debye-Ang^2)
       XXX       0.0000    XXY       0.0000    XYY      -0.0000
       YYY       0.0000    XXZ      -1.2712    XYZ      -0.0000
       YYZ      -0.2024    XZZ       0.0000    YZZ       0.0000
       ZZZ      -0.9780
    Hexadecapole Moments (Debye-Ang^3)
      XXXX      -6.9511   XXXY      -0.0000   XXYY      -2.8087
      XYYY      -0.0000   YYYY      -8.0810   XXXZ       0.0000
      XXYZ      -0.0000   XYYZ       0.0000   YYYZ      -0.0000
      XXZZ      -2.3074   XYZZ       0.0000   YYZZ      -2.7771
      XZZZ       0.0000   YZZZ      -0.0000   ZZZZ      -8.3206
 -----------------------------------------------------------------
 Calculating analytic gradient of the SCF energy
 Gradient of SCF Energy
            1           2           3
    1  -0.0000000   0.0003855  -0.0003855
    2   0.0000000  -0.0000000  -0.0000000
    3  -0.0008404   0.0004202   0.0004202
 Max gradient component =       8.404E-04
 RMS gradient           =       3.882E-04
 Gradient time:  CPU 3.65 s  wall 0.46 s
 Adding empirical dispersion correction 
 ----------------------------------------------------------------
 Doing -D3(BJ) with
 s6  =   1.00000
 s8  =   1.98890
 a1  =   0.39810
 a2  =   4.42110
 ----------------------------------------------------------------
 -D3 energy without 3body term =     -0.0005738226 hartrees
 ----------------------------------------------------------------
             Standard Nuclear Orientation (Angstroms)
    I     Atom           X                Y                Z
 ----------------------------------------------------------------
    1      O       0.0000000000     0.0000000000     0.1168791335
    2      H      -0.7658144252    -0.0000000000    -0.4675165341
    3      H       0.7668144252     0.0000000000    -0.4675165341
 ----------------------------------------------------------------
 Nuclear Repulsion Energy =           9.13027820 hartrees
 There are        5 alpha and        5 beta electrons

                       Distance Matrix (Angstroms)
             O (  1)   H (  2)
   H (  2)  0.963322
   H (  3)  0.964118  1.532629
 
 Requested basis set is def2-SVPD
 There are 17 shells and 39 basis functions
 A cutoff of  1.0D-14 yielded    153 shell pairs
 There are       821 function pairs (       912 Cartesian)
 Smallest overlap matrix eigenvalue = 5.37E-03
 Guess MOs from SCF MO coefficient file

 -----------------------------------------------------------------------
  General SCF calculation program by
  Eric Jon Sundstrom, Paul Horn, Yuezhi Mao, Dmitri Zuev, Alec White,
  David Stuck, Shaama M.S., Shane Yost, Joonho Lee, David Small,
  Daniel Levine, Susi Lehtola, Hugh Burton, Evgeny Epifanovsky,
  Bang C. Huynh
 -----------------------------------------------------------------------
 Exchange:     0.2000 Hartree-Fock + 0.0800 Slater + 0.7200 B88
 Correlation:  0.1900 VWN1RPA + 0.8100 LYP
 Using Euler-Maclaurin-Lebedev (75,302) quadrature formula
 Dispersion:   Grimme D3
 A restricted SCF calculation will be
 performed using DIIS
 SCF converges when DIIS error is below 1.0e-09
 ---------------------------------------
  Cycle       Energy         DIIS error
 ---------------------------------------
    1     -76.3809744607      4.95e-05  
    2     -76.3809749245      7.62e-06  
    3     -76.3809749310      4.71e-06  
    4     -76.3809749334      2.40e-06  
    5     -76.3809749342      1.48e-07  
    6     -76.3809749343      2.29e-08  
    7     -76.3809749343      1.44e-09  
    8     -76.3809749343      1.95e-10  Convergence criterion met
 ---------------------------------------
 SCF time:   CPU 5.53s  wall 1.00s 
 SCF   energy =   -76.38097493
 Total energy =   -76.38097493
 
 --------------------------------------------------------------
 
                    Orbital Energies (a.u.)
 --------------------------------------------------------------
 
 Alpha MOs
 -- Occupied --
-19.1547  -1.0079  -0.5429  -0.3978  -0.3255
 -- Virtual --
 -0.0031   0.0652   0.1149   0.1164   0.1604   0.1855   0.2275   0.2444
  0.2716   0.3472   0.3543   0.3884   0.5163   0.5285   0.5686   0.6050
  0.6073   0.8964   1.0104   1.1862   1.2045   1.5125   1.6154   1.6534
  1.8071   1.9259   1.9336   2.2278   2.3518   2.9855   3.0457   3.1841
  3.6121   4.0153
 --------------------------------------------------------------
 
          Ground-State Mulliken Net Atomic Charges

     Atom                 Charge (a.u.)
  ----------------------------------------
      1 O                    -0.236222
      2 H                     0.117761
      3 H                     0.118460
  ----------------------------------------
  Sum of atomic charges =     0.000000

 -----------------------------------------------------------------
                    Cartesian Multipole Moments
 -----------------------------------------------------------------
    Charge (ESU x 10^10)
                 0.0000
    Dipole Moment (Debye)
         X       0.0013      Y       0.0000      Z      -1.8810
       Tot       1.8810
    Quadrupole Moments (Debye-Ang)
        XX      -4.5155     XY      -0.0000     YY      -7.8329
        XZ      -0.0006     YZ       0.0000     ZZ      -6.5437
    Octopole Moments (Debye-Ang^2)
       XXX       0.0009    XXY       0.0000    XYY      -0.0010
       YYY      -0.0000    XXZ      -1.2750    XYZ       0.0000
       YYZ      -0.2087    XZZ      -0.0006    YZZ      -0.0000
       ZZZ      -0.9955
    Hexadecapole Moments (Debye-Ang^3)
      XXXX      -6.9563   XXXY       0.0000   XXYY      -2.8086
      XYYY       0.0000   YYYY      -8.0813   XXXZ      -0.0004
      XXYZ      -0.0000   XYYZ       0.0005   YYYZ       0.0000
      XXZZ      -2.3084   XYZZ       0.0000   YYZZ      -2.7780
      XZZZ       0.0013   YZZZ       0.0000   ZZZZ      -8.3251
 -----------------------------------------------------------------
 Calculating analytic gradient of the SCF energy
 Gradient of SCF Energy
            1           2           3
    1  -0.0006522   0.0007029  -0.0000507
    2   0.0000000  -0.0000000  -0.0000000
    3  -0.0003865   0.0004420  -0.0000555
 Max gradient component =       7.029E-04
 RMS gradient           =       3.756E-04
 Gradient time:  CPU 3.66 s  wall 0.46 s
 Adding empirical dispersion correction 
 ----------------------------------------------------------------
 Doing -D3(BJ) with
 s6  =   1.00000
 s8  =   1.98890
 a1  =   0.39810
 a2  =   4.42110
 ----------------------------------------------------------------
 -D3 energy without 3body term =     -0.0005738180 hartrees
 ----------------------------------------------------------------
             Standard Nuclear Orientation (Angstroms)
    I     Atom           X                Y                Z
 ----------------------------------------------------------------
    1      O       0.0000000000     0.0000000000     0.1168791335
    2      H      -0.7678144252    -0.0000000000    -0.4675165341
    3      H       0.7668144252     0.0000000000    -0.4675165341
 ----------------------------------------------------------------
 Nuclear Repulsion Energy =           9.12258351 hartrees
 There are        5 alpha and        5 beta electrons

                       Distance Matrix (Angstroms)
             O (  1)   H (  2)
   H (  2)  0.964913
   H (  3)  0.964118  1.534629
 
 Requested basis set is def2-SVPD
 There are 17 shells and 39 basis functions
 A cutoff of  1.0D-14 yielded    153 shell pairs
 There are       821 function pairs (       912 Cartesian)
 Smallest overlap matrix eigenvalue = 5.39E-03
 Guess MOs from SCF MO coefficient file

 -----------------------------------------------------------------------
  General SCF calculation program by
  Eric Jon Sundstrom, Paul Horn, Yuezhi Mao, Dmitri Zuev, Alec White,
  David Stuck, Shaama M.S., Shane Yost, Joonho Lee, David Small,
  Daniel Levine, Susi Lehtola, Hugh Burton, Evgeny Epifanovsky,
  Bang C. Huynh
 -----------------------------------------------------------------------
 Exchange:     0.2000 Hartree-Fock + 0.0800 Slater + 0.7200 B88
 Correlation:  0.1900 VWN1RPA + 0.8100 LYP
 Using Euler-Maclaurin-Lebedev (75,302) quadrature formula
 Dispersion:   Grimme D3
 A restricted SCF calculation will be
 performed using DIIS
 SCF converges when DIIS error is below 1.0e-09
 ---------------------------------------
  Cycle       Energy         DIIS error
 ---------------------------------------
    1     -76.3809739610      7.45e-05  
    2     -76.3809748190      2.69e-05  
    3     -76.3809748140      2.81e-05  
    4     -76.3809749226      3.23e-06  
    5     -76.3809749241      2.12e-07  
    6     -76.3809749241      3.36e-08  
    7     -76.3809749241      3.46e-09  
    8     -76.3809749241      2.84e-10  Convergence criterion met
 ---------------------------------------
 SCF time:   CPU 5.53s  wall 1.00s 
 SCF   energy =   -76.38097492
 Total energy =   -76.38097492
 
[...]
 Adding empirical dispersion correction 
 ----------------------------------------------------------------
 Doing -D3(BJ) with
 s6  =   1.00000
 s8  =   1.98890
 a1  =   0.39810
 a2  =   4.42110
 ----------------------------------------------------------------
 -D3 energy without 3body term =     -0.0005738177 hartrees
 ----------------------------------------------------------------
             Standard Nuclear Orientation (Angstroms)
    I     Atom           X                Y                Z
 ----------------------------------------------------------------
    1      O       0.0000000000     0.0000000000     0.1168791335
    2      H      -0.7668144252    -0.0000000000    -0.4665165341
    3      H       0.7668144252     0.0000000000    -0.4675165341
 ----------------------------------------------------------------
 Nuclear Repulsion Energy =           9.12918939 hartrees
 There are        5 alpha and        5 beta electrons

                       Distance Matrix (Angstroms)
             O (  1)   H (  2)
   H (  2)  0.963512
   H (  3)  0.964118  1.533629
 
 Requested basis set is def2-SVPD
 There are 17 shells and 39 basis functions
 A cutoff of  1.0D-14 yielded    153 shell pairs
 There are       821 function pairs (       912 Cartesian)
 Smallest overlap matrix eigenvalue = 5.38E-03
 Guess MOs from SCF MO coefficient file

 -----------------------------------------------------------------------
  General SCF calculation program by
  Eric Jon Sundstrom, Paul Horn, Yuezhi Mao, Dmitri Zuev, Alec White,
  David Stuck, Shaama M.S., Shane Yost, Joonho Lee, David Small,
  Daniel Levine, Susi Lehtola, Hugh Burton, Evgeny Epifanovsky,
  Bang C. Huynh
 -----------------------------------------------------------------------
 Exchange:     0.2000 Hartree-Fock + 0.0800 Slater + 0.7200 B88
 Correlation:  0.1900 VWN1RPA + 0.8100 LYP
 Using Euler-Maclaurin-Lebedev (75,302) quadrature formula
 Dispersion:   Grimme D3
 A restricted SCF calculation will be
 performed using DIIS
 SCF converges when DIIS error is below 1.0e-09
 ---------------------------------------
  Cycle       Energy         DIIS error
 ---------------------------------------
    1     -76.3809748550      4.27e-05  
    2     -76.3809752074      8.94e-06  
    3     -76.3809752032      1.09e-05  
    4     -76.3809752193      1.67e-06  
    5     -76.3809752197      1.10e-07  
    6     -76.3809752197      2.17e-08  
    7     -76.3809752197      1.89e-09  
    8     -76.3809752197      1.93e-10  Convergence criterion met
 ---------------------------------------
 SCF time:   CPU 5.53s  wall 1.00s 
 SCF   energy =   -76.38097522
 Total energy =   -76.38097522
 
 --------------------------------------------------------------
 
                    Orbital Energies (a.u.)
 --------------------------------------------------------------
 
 Alpha MOs
 -- Occupied --
-19.1547  -1.0078  -0.5430  -0.3976  -0.3255
 -- Virtual --
 -0.0031   0.0652   0.1149   0.1164   0.1604   0.1854   0.2275   0.2445
  0.2717   0.3472   0.3542   0.3884   0.5163   0.5284   0.5685   0.6049
  0.6073   0.8965   1.0105   1.1862   1.2044   1.5125   1.6155   1.6534
  1.8071   1.9253   1.9339   2.2277   2.3517   2.9851   3.0459   3.1835
  3.6126   4.0147
 --------------------------------------------------------------
 
          Ground-State Mulliken Net Atomic Charges

     Atom                 Charge (a.u.)
  ----------------------------------------
      1 O                    -0.236557
      2 H                     0.118012
      3 H                     0.118545
  ----------------------------------------
  Sum of atomic charges =     0.000000

 -----------------------------------------------------------------
                    Cartesian Multipole Moments
 -----------------------------------------------------------------
    Charge (ESU x 10^10)
                -0.0000
    Dipole Moment (Debye)
         X      -0.0003      Y      -0.0000      Z      -1.8798
       Tot       1.8798
    Quadrupole Moments (Debye-Ang)
        XX      -4.5119     XY       0.0000     YY      -7.8333
        XZ      -0.0017     YZ       0.0000     ZZ      -6.5467
    Octopole Moments (Debye-Ang^2)
       XXX      -0.0008    XXY      -0.0000    XYY      -0.0003
       YYY      -0.0000    XXZ      -1.2759    XYZ      -0.0000
       YYZ      -0.2093    XZZ       0.0011    YZZ      -0.0000
       ZZZ      -0.9960
    Hexadecapole Moments (Debye-Ang^3)
      XXXX      -6.9548   XXXY       0.0000   XXYY      -2.8095
      XYYY       0.0000   YYYY      -8.0822   XXXZ      -0.0000
      XXYZ       0.0000   XYYZ       0.0004   YYYZ       0.0000
      XXZZ      -2.3097   XYZZ       0.0000   YYZZ      -2.7782
      XZZZ       0.0002   YZZZ       0.0000   ZZZZ      -8.3266
 -----------------------------------------------------------------
 Calculating analytic gradient of the SCF energy
 Gradient of SCF Energy
            1           2           3
    1  -0.0004970   0.0004397   0.0000574
    2  -0.0000000  -0.0000000   0.0000000
    3  -0.0004188   0.0003986   0.0000203
 Max gradient component =       4.970E-04
 RMS gradient           =       2.941E-04
 Gradient time:  CPU 3.61 s  wall 0.45 s
 Adding empirical dispersion correction 
 ----------------------------------------------------------------
 Doing -D3(BJ) with
 s6  =   1.00000
 s8  =   1.98890
 a1  =   0.39810
 a2  =   4.42110
 ----------------------------------------------------------------
 -D3 energy without 3body term =     -0.0005738228 hartrees
 ----------------------------------------------------------------
             Standard Nuclear Orientation (Angstroms)
    I     Atom           X                Y                Z
 ----------------------------------------------------------------
    1      O       0.0000000000     0.0000000000     0.1168791335
    2      H      -0.7668144252    -0.0000000000    -0.4685165341
    3      H       0.7668144252     0.0000000000    -0.4675165341
 ----------------------------------------------------------------
 Nuclear Repulsion Energy =           9.12366812 hartrees
 There are        5 alpha and        5 beta electrons

                       Distance Matrix (Angstroms)
             O (  1)   H (  2)
   H (  2)  0.964724
   H (  3)  0.964118  1.533629
 
 Requested basis set is def2-SVPD
 There are 17 shells and 39 basis functions
 A cutoff of  1.0D-14 yielded    153 shell pairs
 There are       821 function pairs (       912 Cartesian)
 Smallest overlap matrix eigenvalue = 5.38E-03
 Guess MOs from SCF MO coefficient file

 -----------------------------------------------------------------------
  General SCF calculation program by
  Eric Jon Sundstrom, Paul Horn, Yuezhi Mao, Dmitri Zuev, Alec White,
  David Stuck, Shaama M.S., Shane Yost, Joonho Lee, David Small,
  Daniel Levine, Susi Lehtola, Hugh Burton, Evgeny Epifanovsky,
  Bang C. Huynh
 -----------------------------------------------------------------------
 Exchange:     0.2000 Hartree-Fock + 0.0800 Slater + 0.7200 B88
 Correlation:  0.1900 VWN1RPA + 0.8100 LYP
 Using Euler-Maclaurin-Lebedev (75,302) quadrature formula
 Dispersion:   Grimme D3
 A restricted SCF calculation will be
 performed using DIIS
 SCF converges when DIIS error is below 1.0e-09
 ---------------------------------------
  Cycle       Energy         DIIS error
 ---------------------------------------
    1     -76.3809744269      6.53e-05  
    2     -76.3809751727      1.69e-05  
    3     -76.3809751598      1.99e-05  
    4     -76.3809752140      2.61e-06  
    5     -76.3809752150      1.53e-07  
    6     -76.3809752150      3.59e-08  
    7     -76.3809752150      2.22e-09  
    8     -76.3809752150      3.46e-10  Convergence criterion met
 ---------------------------------------
 SCF time:   CPU 5.51s  wall 1.00s 
 SCF   energy =   -76.38097522
 Total energy =   -76.38097522
 
 --------------------------------------------------------------
 
                    Orbital Energies (a.u.)
 --------------------------------------------------------------
 
 Alpha MOs
 -- Occupied --
-19.1548  -1.0076  -0.5426  -0.3977  -0.3255
 -- Virtual --
 -0.0032   0.0651   0.1149   0.1165   0.1603   0.1855   0.2275   0.2442
  0.2715   0.3471   0.3542   0.3882   0.5162   0.5285   0.5687   0.6051
  0.6072   0.8959   1.0100   1.1859   1.2043   1.5125   1.6153   1.6532
  1.8069   1.9253   1.9336   2.2261   2.3506   2.9851   3.0451   3.1831
  3.6110   4.0141
 --------------------------------------------------------------
 
          Ground-State Mulliken Net Atomic Charges

     Atom                 Charge (a.u.)
  ----------------------------------------
      1 O                    -0.237513
      2 H                     0.119022
      3 H                     0.118490
  ----------------------------------------
  Sum of atomic charges =     0.000000

 -----------------------------------------------------------------
                    Cartesian Multipole Moments
 -----------------------------------------------------------------
    Charge (ESU x 10^10)
                -0.0000
    Dipole Moment (Debye)
         X       0.0003      Y      -0.0000      Z      -1.8816
       Tot       1.8816
    Quadrupole Moments (Debye-Ang)
        XX      -4.5145     XY       0.0000     YY      -7.8346
        XZ       0.0017     YZ       0.0000     ZZ      -6.5435
    Octopole Moments (Debye-Ang^2)
       XXX       0.0008    XXY      -0.0000    XYY       0.0003
       YYY      -0.0000    XXZ      -1.2763    XYZ      -0.0000
       YYZ      -0.2074    XZZ      -0.0011    YZZ      -0.0000
       ZZZ      -0.9927
    Hexadecapole Moments (Debye-Ang^3)
      XXXX      -6.9622   XXXY       0.0000   XXYY      -2.8109
      XYYY       0.0000   YYYY      -8.0845   XXXZ      -0.0000
      XXYZ       0.0000   XYYZ      -0.0004   YYYZ       0.0000
      XXZZ      -2.3092   XYZZ       0.0000   YYZZ      -2.7796
      XZZZ      -0.0001   YZZZ       0.0000   ZZZZ      -8.3308
 -----------------------------------------------------------------
 Calculating analytic gradient of the SCF energy
 Gradient of SCF Energy
            1           2           3
    1   0.0004948  -0.0004439  -0.0000510
    2  -0.0000000  -0.0000000   0.0000000
    3   0.0004236  -0.0004007  -0.0000229
 Max gradient component =       4.948E-04
 RMS gradient           =       2.953E-04
 Gradient time:  CPU 3.62 s  wall 0.46 s
Dipole drv :
gprntSymmMtrx error report: 
 Final Hessian.
            1           2           3           4           5           6
    1   0.6888499   0.0000000   0.0000000  -0.3444250   0.0000000  -0.2624394
    2   0.0000000   0.0001676   0.0000000   0.0000000  -0.0000838   0.0000000
    3   0.0000000   0.0000000   0.4457954  -0.2051152   0.0000000  -0.2228977
    4  -0.3444250   0.0000000  -0.2051152   0.3728812   0.0000000   0.2337773
    5   0.0000000  -0.0000838   0.0000000   0.0000000   0.0000857   0.0000000
    6  -0.2624394   0.0000000  -0.2228977   0.2337773   0.0000000   0.2114787
    7  -0.3444250   0.0000000   0.2051152  -0.0284562   0.0000000   0.0286621
    8   0.0000000  -0.0000838   0.0000000   0.0000000  -0.0000020   0.0000000
    9   0.2624394   0.0000000  -0.2228977  -0.0286621   0.0000000   0.0114191
            7           8           9
    1  -0.3444250   0.0000000   0.2624394
    2   0.0000000  -0.0000838   0.0000000
    3   0.2051152   0.0000000  -0.2228977
    4  -0.0284562   0.0000000  -0.0286621
    5   0.0000000  -0.0000020   0.0000000
    6   0.0286621   0.0000000   0.0114191
    7   0.3728812   0.0000000  -0.2337773
    8   0.0000000   0.0000857   0.0000000
    9  -0.2337773   0.0000000   0.2114787
 Adding empirical dispersion correction 
 ----------------------------------------------------------------
 Doing -D3(BJ) with
 s6  =   1.00000
 s8  =   1.98890
 a1  =   0.39810
 a2  =   4.42110
 ----------------------------------------------------------------
 -D3 energy without 3body term =     -0.0005738203 hartrees
 ----------------------------------------------------------------
             Standard Nuclear Orientation (Angstroms)
    I     Atom           X                Y                Z
 ----------------------------------------------------------------
    1      O       0.0000000000     0.0000000000     0.1168791335
    2      H      -0.7668144252    -0.0000000000    -0.4675165341
    3      H       0.7668144252     0.0000000000    -0.4675165341
 ----------------------------------------------------------------
 Nuclear Repulsion Energy =           9.12642859 hartrees
 There are        5 alpha and        5 beta electrons
 old dipole drv.
            1           2           3           4           5           6
    1  -0.5304283   0.0000005   0.0000000   0.2652144   0.0000000  -0.0531797
    2   0.0000000  -0.6700017   0.0000014  -0.0000000   0.3350010  -0.0000001
    3   0.0000000   0.0000000  -0.3745586  -0.0671749   0.0000000   0.1872794
            7           8           9
    1   0.2652144   0.0000000   0.0531797
    2  -0.0000000   0.3350010   0.0000001
    3   0.0671749   0.0000000   0.1872794
 New transposed dipole drv.
            1           2           3
    1  -0.5304283   0.0000000   0.0000000
    2   0.0000005  -0.6700017   0.0000000
    3   0.0000000   0.0000014  -0.3745586
    4   0.2652144  -0.0000000  -0.0671749
    5   0.0000000   0.3350010   0.0000000
    6  -0.0531797  -0.0000001   0.1872794
    7   0.2652144  -0.0000000   0.0671749
    8   0.0000000   0.3350010   0.0000000
    9   0.0531797   0.0000001   0.1872794
FINAL TENSOR RESULT:
Order 2, Length 9
    Atom      X          Y          Z
     1 Order 1, Length 9
    Atom      X          Y          Z
     1    6.888499332407275e-01   0.000000000000000e+00   0.000000000000000e+00
     2   -3.444249842610637e-01   0.000000000000000e+00  -2.624394345137650e-01
     3   -3.444249842610637e-01   0.000000000000000e+00   2.624394345137650e-01

Order 1, Length 9
    Atom      X          Y          Z
     1    0.000000000000000e+00   1.676047554180048e-04   4.603846858048494e-08
     2    0.000000000000000e+00  -8.376987612128199e-05   0.000000000000000e+00
     3    0.000000000000000e+00  -8.376987612128199e-05   0.000000000000000e+00

Order 1, Length 9
    Atom      X          Y          Z
     1    0.000000000000000e+00   4.603846858048494e-08   4.457953616094860e-01
     2   -2.051152201574815e-01   0.000000000000000e+00  -2.228977128500449e-01
     3    2.051152201751947e-01   0.000000000000000e+00  -2.228977128701339e-01


     2 Order 1, Length 9
    Atom      X          Y          Z
     1   -3.444249842610637e-01   0.000000000000000e+00  -2.051152201574815e-01
     2    3.728812392099703e-01   0.000000000000000e+00   2.337773245363787e-01
     3   -2.845623730820667e-02   0.000000000000000e+00  -2.866210366646327e-02

Order 1, Length 9
    Atom      X          Y          Z
     1    0.000000000000000e+00  -8.376987612128199e-05   0.000000000000000e+00
     2    0.000000000000000e+00   8.570189688702648e-05   0.000000000000000e+00
     3    0.000000000000000e+00  -1.964522358070920e-06   0.000000000000000e+00

Order 1, Length 9
    Atom      X          Y          Z
     1   -2.624394345137650e-01   0.000000000000000e+00  -2.228977128500449e-01
     2    2.337773245363787e-01   0.000000000000000e+00   2.114786920133256e-01
     3    2.866210366646327e-02   0.000000000000000e+00   1.141905290191566e-02


     3 Order 1, Length 9
    Atom      X          Y          Z
     1   -3.444249842610637e-01   0.000000000000000e+00   2.051152201751947e-01
     2   -2.845623730820667e-02   0.000000000000000e+00   2.866210366646327e-02
     3    3.728812392099703e-01   0.000000000000000e+00  -2.337773245363787e-01

Order 1, Length 9
    Atom      X          Y          Z
     1    0.000000000000000e+00  -8.376987612128199e-05   0.000000000000000e+00
     2    0.000000000000000e+00  -1.964522358070920e-06   0.000000000000000e+00
     3    0.000000000000000e+00   8.570189688702648e-05   0.000000000000000e+00

Order 1, Length 9
    Atom      X          Y          Z
     1    2.624394345137650e-01   0.000000000000000e+00  -2.228977128701339e-01
     2   -2.866210366646327e-02   0.000000000000000e+00   1.141905290191566e-02
     3   -2.337773245363787e-01   0.000000000000000e+00   2.114786920133256e-01





 ###########################################
 # Finishing finite difference calculation #
 ###########################################

 Requested basis set is def2-SVPD
 There are 17 shells and 39 basis functions
 **********************************************************************
 **                                                                  **
 **                       VIBRATIONAL ANALYSIS                       **
 **                       --------------------                       **
 **                                                                  **
 **        VIBRATIONAL FREQUENCIES (CM**-1) AND NORMAL MODES         **
 **     FORCE CONSTANTS (mDYN/ANGSTROM) AND REDUCED MASSES (AMU)     **
 **                  INFRARED INTENSITIES (KM/MOL)                   **
 **                                                                  **
 **********************************************************************
 

 Mode:                 1                      2                      3
 Frequency:      1585.62                3819.61                3925.88
 Force Cnst:      1.6045                 8.9803                 9.8321
 Red. Mass:       1.0832                 1.0447                 1.0827
 IR Active:          YES                    YES                    YES
 IR Intens:       78.025                  7.109                 75.510
 Raman Active:       YES                    YES                    YES
               X      Y      Z        X      Y      Z        X      Y      Z
 O         -0.000 -0.000 -0.071   -0.000 -0.000 -0.050   -0.071 -0.000  0.000
 H         -0.425 -0.000  0.563    0.586  0.000  0.394    0.561  0.000  0.428
 H          0.425  0.000  0.563   -0.586 -0.000  0.394    0.561  0.000 -0.428
 TransDip  -0.000 -0.000  0.283   -0.000 -0.000  0.085    0.278 -0.000 -0.000

 STANDARD THERMODYNAMIC QUANTITIES AT   298.15 K  AND     1.00 ATM

   This Molecule has  0 Imaginary Frequencies
   Zero point vibrational energy:       13.339 kcal/mol

   Atom    1 Element O  Has Mass   15.99491
   Atom    2 Element H  Has Mass    1.00783
   Atom    3 Element H  Has Mass    1.00783
   Molecular Mass:    18.010570 amu
   Principal axes and moments of inertia in amu*Bohr^2:
                             1           2           3
    Eigenvalues --        2.18315     4.23249     6.41564
          X              -1.00000     0.00000    -0.00000
          Y              -0.00000     0.00000     1.00000
          Z              -0.00000     1.00000     0.00000
   Rotational Symmetry Number is   2
   The Molecule is an Asymmetric Top
   Translational Enthalpy:        0.889 kcal/mol
   Rotational Enthalpy:           0.889 kcal/mol
   Vibrational Enthalpy:         13.342 kcal/mol
   gas constant (RT):             0.592 kcal/mol
   Translational Entropy:        34.608  cal/mol.K
   Rotational Entropy:           10.482  cal/mol.K
   Vibrational Entropy:           0.008  cal/mol.K

   Total Enthalpy:               15.712 kcal/mol
   Total Entropy:                45.098  cal/mol.K

   Quasi-RRHO corrections using alpha = 4, and omega = 100 cm^-1
   QRRHO-Vib. Enthalpy:          13.342 kcal/mol
   QRRHO-Vib. Entropy:            0.008  cal/mol.K
   QRRHO-Total Enthalpy:         15.712 kcal/mol
   QRRHO-Total Entropy:          45.098  cal/mol.K
 Total job time:  12.53s(wall), 99.90s(cpu) 
 Tue Nov  5 14:28:01 2024

        *************************************************************
        *                                                           *
        *  Thank you very much for using Q-Chem.  Have a nice day.  *
        *                                                           *
        *************************************************************


