
Running Job 1 of 1 cf3h_h2o_eda2_op1_B3LYP-D3BJ_tzvppd.in
qchem cf3h_h2o_eda2_op1_B3LYP-D3BJ_tzvppd.in_1455956.0 /data/scratch/cf3h_h2o_eda2_op1_B3LYP-D3BJ_tzvppd20240605003643/ 1
/opt/qchem/6.1/exe/qcprog.exe_s cf3h_h2o_eda2_op1_B3LYP-D3BJ_tzvppd.in_1455956.0 /data/scratch/cf3h_h2o_eda2_op1_B3LYP-D3BJ_tzvppd20240605003643/
                  Welcome to Q-Chem
     A Quantum Leap Into The Future Of Chemistry


 Q-Chem 6.1, Q-Chem, Inc., Pleasanton, CA (2023)

 E. Epifanovsky,  A. T. B. Gilbert,  Xintian Feng,  Joonho Lee,  Yuezhi Mao,  
 N. Mardirossian,  P. Pokhilko,  A. White,  M. Wormit,  M. P. Coons,  
 A. L. Dempwolff,  Zhengting Gan,  D. Hait,  P. R. Horn,  L. D. Jacobson,  
 I. Kaliman,  J. Kussmann,  A. W. Lange,  Ka Un Lao,  D. S. Levine,  Jie Liu,  
 S. C. McKenzie,  A. F. Morrison,  K. D. Nanda,  F. Plasser,  D. R. Rehn,  
 M. L. Vidal,  Zhi-Qiang You,  Ying Zhu,  B. Alam,  B. Albrecht,  
 A. Aldossary,  E. Alguire,  J. H. Andersen,  V. Athavale,  D. Barton,  
 K. Begam,  A. Behn,  N. Bellonzi,  Y. A. Bernard,  E. J. Berquist,  
 H. Burton,  A. Carreras,  K. Carter-Fenk,  Mathew Chow,  Romit Chakraborty,  
 Chandrima Chakravarty,  Junhan Chen,  A. D. Chien,  K. D. Closser,  
 V. Cofer-Shabica,  L. Cunha,  S. Dasgupta,  Jia Deng,  M. de Wergifosse,  
 M. Diedenhofen,  Hainam Do,  S. Ehlert,  Po-Tung Fang,  S. Fatehi,  
 Qingguo Feng,  T. Friedhoff,  Thomas Froitzheim,  B. Ganoe,  J. Gayvert,  
 Qinghui Ge,  G. Gidofalvi,  M. Gimferrer,  M. Goldey,  Montgomery Gray,  
 J. Gomes,  C. Gonzalez-Espinoza,  S. Gulania,  A. Gunina,  J. A. Gyamfi,  
 M. W. D. Hanson-Heine,  P. H. P. Harbach,  A. W. Hauser,  M. F. Herbst,  
 M. Hernandez Vera,  M. Hodecker,  Z. C. Holden,  S. Houck,  Xunkun Huang,  
 Kerwin Hui,  B. C. Huynh,  K. Ikeda,  M. Ivanov,  Hyunjun Ji,  Zuxin Jin,  
 Hanjie Jiang,  Subrata Jana,  B. Kaduk,  S. Kaehler,  R. Kang,  
 K. Khistyaev,  Jaehoon Kim,  Yongbin Kim,  P. Klunzinger,  Z. Koczor-Benda,  
 Joong Hoon Koh,  D. Kosenkov,  Saikiran Kotaru,  L. Koulias,  T. Kowalczyk,  
 C. M. Krauter,  K. Kue,  A. Kunitsa,  T. Kus,  A. Landau,  K. V. Lawler,  
 D. Lefrancois,  S. Lehtola,  Rain Li,  Shaozhi Li,  Yi-Pei Li,  
 Jiashu Liang,  M. Liebenthal,  Hung-Hsuan Lin,  You-Sheng Lin,  Fenglai Liu,  
 Kuan-Yu Liu,  Xiao Liu,  M. Loipersberger,  A. Luenser,  C. Malbon,  
 A. Manjanath,  P. Manohar,  E. Mansoor,  S. F. Manzer,  Shan-Ping Mao,  
 A. V. Marenich,  T. Markovich,  S. Mason,  F. Matz,  S. A. Maurer,  
 P. F. McLaughlin,  M. F. S. J. Menger,  J.-M. Mewes,  S. A. Mewes,  
 P. Morgante,  Mohammad Mostafanejad,  J. W. Mullinax,  K. J. Oosterbaan,  
 G. Paran,  V. Parravicini,  Alexander C. Paul,  Suranjan K. Paul,  
 F. Pavosevic,  Zheng Pei,  S. Prager,  E. I. Proynov,  E. Ramos,  B. Rana,  
 A. E. Rask,  A. Rettig,  R. M. Richard,  F. Rob,  E. Rossomme,  T. Scheele,  
 M. Scheurer,  M. Schneider,  P. E. Schneider,  Tim K. Schramm,  N. Sergueev,  
 S. M. Sharada,  M. Sharma,  Hengyuan Shen,  W. Skomorowski,  D. W. Small,  
 C. J. Stein,  Alistair J. Sterling,  Yingli Su,  Yu-Chuan Su,  
 E. J. Sundstrom,  J. Talbot,  Zhen Tao,  J. Thirman,  Hung-Yi Tsai,  
 T. Tsuchimochi,  N. M. Tubman,  C. Utku,  S. P. Veccham,  O. Vydrov,  
 J. Wenzel,  Jonathan Wong,  J. Witte,  A. Yamada,  Chou-Hsun Yang,  Kun Yao,  
 S. Yeganeh,  S. R. Yost,  A. Zech,  F. Zeller,  Igor Ying Zhang,  
 Xing Zhang,  Yu Zhang,  D. Zuev,  A. Aspuru-Guzik,  A. T. Bell,  
 N. A. Besley,  K. B. Bravaya,  B. R. Brooks,  D. Casanova,  Jeng-Da Chai,  
 Hsing-Ta Chen,  S. Coriani,  C. J. Cramer,  A. E. DePrince, III,  
 R. A. DiStasio Jr.,  A. Dreuw,  B. D. Dunietz,  T. R. Furlani,  
 W. A. Goddard III,  S. Grimme,  S. Hammes-Schiffer,  T. Head-Gordon,  
 W. J. Hehre,  Chao-Ping Hsu,  T.-C. Jagau,  Yousung Jung,  A. Klamt,  
 Jing Kong,  D. S. Lambrecht,  Xiangyuan Li,  WanZhen Liang,  N. J. Mayhall,  
 C. W. McCurdy,  J. B. Neaton,  T. Neudecker,  C. Ochsenfeld,  
 J. A. Parkhill,  R. Peverati,  V. A. Rassolov,  Haisheng Ren,  Yihan Shao,  
 L. V. Slipchenko,  R. P. Steele,  J. E. Subotnik,  A. J. W. Thom,  
 A. Tkatchenko,  D. G. Truhlar,  T. Van Voorhis,  Fan Wang,  
 T. A. Wesolowski,  K. B. Whaley,  H. L. Woodcock III,  P. M. Zimmerman,  
 S. Faraji,  P. M. W. Gill,  M. Head-Gordon,  J. M. Herbert,  A. I. Krylov

 Contributors to earlier versions of Q-Chem not listed above: 
 R. D. Adamson,  B. Austin,  R. Baer,  J. Baker,  G. J. O. Beran,  
 K. Brandhorst,  S. T. Brown,  E. F. C. Byrd,  Arup K. Chakraborty,  
 G. K. L. Chan,  Chun-Min Chang,  Yunqing Chen,  C.-L. Cheng,  
 Siu Hung Chien,  D. M. Chipman,  D. L. Crittenden,  H. Dachsel,  
 R. J. Doerksen,  A. D. Dutoi,  R. G. Edgar,  J. Fosso-Tande,  
 L. Fusti-Molnar,  D. Ghosh,  A. Ghysels,  A. Golubeva-Zadorozhnaya,  
 J. Gonthier,  M. S. Gordon,  S. R. Gwaltney,  G. Hawkins,  J. E. Herr,  
 A. Heyden,  S. Hirata,  E. G. Hohenstein,  G. Kedziora,  F. J. Keil,  
 C. Kelley,  Jihan Kim,  R. A. King,  R. Z. Khaliullin,  P. P. Korambath,  
 W. Kurlancheek,  A. Laurent,  A. M. Lee,  M. S. Lee,  S. V. Levchenko,  
 Ching Yeh Lin,  D. Liotard,  E. Livshits,  R. C. Lochan,  I. Lotan,  
 L. A. Martinez-Martinez,  P. E. Maslen,  N. Nair,  D. P. O'Neill,  
 D. Neuhauser,  E. Neuscamman,  C. M. Oana,  R. Olivares-Amaya,  R. Olson,  
 T. M. Perrine,  B. Peters,  P. A. Pieniazek,  A. Prociuk,  Y. M. Rhee,  
 J. Ritchie,  M. A. Rohrdanz,  E. Rosta,  N. J. Russ,  H. F. Schaefer III,  
 M. W. Schmidt,  N. E. Schultz,  S. Sharma,  N. Shenvi,  C. D. Sherrill,  
 A. C. Simmonett,  A. Sodt,  T. Stein,  D. Stuck,  K. S. Thanthiriwatte,  
 V. Vanovschi,  L. Vogt,  Tao Wang,  A. Warshel,  M. A. Watson,  
 C. F. Williams,  Q. Wu,  X. Xu,  Jun Yang,  W. Zhang,  Yan Zhao

   Please cite Q-Chem as follows:
  "Software for the frontiers of quantum chemistry:
   An overview of developments in the Q-Chem 5 package"
   J. Chem. Phys. 155, 084801 (2021)
   https://doi.org/10.1063/5.0055522 (open access)

 Q-Chem 6.1.1 for Intel X86 EM64T Linux

 Parts of Q-Chem use Armadillo 9.900.5 (Nocturnal Misbehaviour).
 http://arma.sourceforge.net/

 Q-Chem begins on Wed Jun  5 00:36:44 2024  

 Host: 
0

     Scratch files written to /data/scratch/cf3h_h2o_eda2_op1_B3LYP-D3BJ_tzvppd20240605003643//
 Jan1824 |scratch|qcdevops|jenkins|workspace|build_RNUM -1
 Processing $rem in /opt/qchem/6.1/config/preferences:
 Processing $rem in /home/ymao/.qchemrc:

 Q-Chem warning in module libgen/rem_setup.C, line 3361:

 Neither GIA nor STOLL is specified by user. Use STOLL as the default


 Checking the input file for inconsistencies... 	...done.

--------------------------------------------------------------
User input:
--------------------------------------------------------------
$molecule
0 1
--
0 1
O    2.77773    -0.01318   0.00000
H    3.35837    -0.00196   -0.76769
H    3.35837    -0.00196   0.76769
--
0 1
H    0.59878    -0.04551   0.00000
C    -0.49895   -0.00740   0.00000
F    -1.02270   -1.24292   0.00000
F    -0.95441   0.63633    1.08615
F    -0.95441   0.63633    -1.08615
$end

$rem
JOBTYPE  EDA
EDA2  1
METHOD  B3LYP
BASIS  DEF2-TZVPPD
SYMMETRY  FALSE
SYM_IGNORE  TRUE
MEM_TOTAL  8000
MEM_STATIC  2000
BASIS_LIN_DEP_THRESH  6
THRESH  14
SCF_CONVERGENCE  8
GEN_SCFMAN  TRUE
MAXSCF  200
FD_MAT_VEC_PROD  FALSE
XC_GRID  000099000590
NL_GRID  1
DFT_D  D3_BJ
SCF_GUESS  FRAGMO
FRZ_ORTHO_DECOMP  -1
EDA_CLS_DISP  TRUE
EDA_POL_A  TRUE
EDA_VCT_A  TRUE
$end
--------------------------------------------------------------
 Adding empirical dispersion correction 
 ----------------------------------------------------------------
 Doing -D3(BJ) with
 s6  =   1.00000
 s8  =   1.98890
 a1  =   0.39810
 a2  =   4.42110
 ----------------------------------------------------------------
 -D3 energy without 3body term =     -0.0042577738 hartrees
 ----------------------------------------------------------------
             Standard Nuclear Orientation (Angstroms)
    I     Atom           X                Y                Z
 ----------------------------------------------------------------
    1      O       2.7777300000    -0.0131800000     0.0000000000
    2      H       3.3583700000    -0.0019600000    -0.7676900000
    3      H       3.3583700000    -0.0019600000     0.7676900000
    4      H       0.5987800000    -0.0455100000     0.0000000000
    5      C      -0.4989500000    -0.0074000000     0.0000000000
    6      F      -1.0227000000    -1.2429200000     0.0000000000
    7      F      -0.9544100000     0.6363300000     1.0861500000
    8      F      -0.9544100000     0.6363300000    -1.0861500000
 ----------------------------------------------------------------
 Nuclear Repulsion Energy =         189.00535615 hartrees
 There are       22 alpha and       22 beta electrons
 Requested basis set is def2-TZVPPD
 There are 90 shells and 248 basis functions

 Total QAlloc Memory Limit   8000 MB
 Mega-Array Size      1956 MB
 MEM_STATIC part      2000 MB


                       Distance Matrix (Angstroms)
             O (  1)   H (  2)   H (  3)   H (  4)   C (  5)   F (  6)
   H (  2)  0.962609
   H (  3)  0.962609  1.535380
   H (  4)  2.179190  2.864713  2.864713
   C (  5)  3.276685  3.932975  3.932975  1.098391
   F (  6)  3.994437  4.617695  4.617695  2.015686  1.341948
   F (  7)  3.940870  4.737532  4.371373  2.014206  1.342220  2.171627
   F (  8)  3.940870  4.371373  4.737532  2.014206  1.342220  2.171627
             F (  7)
   F (  8)  2.172300
 
 A cutoff of  1.0D-14 yielded   3771 shell pairs
 There are     28649 function pairs (     36625 Cartesian)
 Smallest overlap matrix eigenvalue = 1.29E-05

 Scale SEOQF with 1.000000e-01/1.000000e-01/1.000000e-01

 Standard Electronic Orientation quadrupole field applied
 Nucleus-field energy     =     0.0000000031 hartrees

 -----------------------------------------------------------------------
  General SCF calculation program by
  Eric Jon Sundstrom, Paul Horn, Yuezhi Mao, Dmitri Zuev, Alec White,
  David Stuck, Shaama M.S., Shane Yost, Joonho Lee, David Small,
  Daniel Levine, Susi Lehtola, Hugh Burton, Evgeny Epifanovsky,
  Bang C. Huynh
 -----------------------------------------------------------------------
================================================================
                 ALMO-EDA with the EDA2 driver                  
================================================================
 The second-generation ALMO-EDA (for DFT):                      
 P. R. Horn, Y. Mao and M. Head-Gordon, PCCP, 18, 23067 (2016)  
 Y. Mao et al. Annu. Rev. Phys. Chem. 72, 641 (2021)            
 Decomposition of the frozen energy:                            
 P. R. Horn, Y. Mao and M. Head-Gordon, JCP, 144, 114107 (2016) 
 FERF model for polarization:                                   
 P. R. Horn and M. Head-Gordon, JCP, 143, 114111 (2015)         
================================================================
 Using eda2 option set 1
 Option set summary: Frozen orbital wavefunction, initial wavefunction decomposition, and nDQ polarization.
--------------------------------
Printing EDA Options
--------------------------------
eda_child_super_basis      0
fragmo_guess_mode          0
child_mp                   1
child_mp_orders            232
cls_elec                   1
cls_disp                   1
scfmi_mode                 1
scfmi_occs                 0
scfmi_virts                0
frz_relax                  0
frz_relax_method           0
dc_pen_start               0
dc_pen_conv                0
dc_pen_increment           0
dc_pen_steps               0
dc_pen_thresh_factor       0
dc_pen_pre_newton_thresh   0
frz_ortho_decomp           0
frz_ortho_decomp_conv      6
plot_mo_ortho_frz          0
frgm_method                2
scfmi_freeze_ss            0
separate_rehyb             0
plot_diff_den              0
eda_nocv                   0
eda_vct_relax              1
disp_free_x                0
disp_free_c                0
eda_bsse                   0
eda_pct_a                  0
eda_covp                   0
eda_vct_a                  1
--------------------------------
 Attempting to make child job directory: /data/scratch/cf3h_h2o_eda2_op1_B3LYP-D3BJ_tzvppd20240605003643//Frg1/
 Attempting to make child job directory: /data/scratch/cf3h_h2o_eda2_op1_B3LYP-D3BJ_tzvppd20240605003643//Frg2/
 Creating input file /data/scratch/cf3h_h2o_eda2_op1_B3LYP-D3BJ_tzvppd20240605003643/Frg1.input
 using default PutDataFrgm: nothing
 calling putenv with: QCSCRATCH=/data/scratch/cf3h_h2o_eda2_op1_B3LYP-D3BJ_tzvppd20240605003643/ 
 Spawning Job For Fragment 0
 Done Job For Fragment 0
 calling putenv with: QCSCRATCH=/data/scratch 
 calling putenv with: QCTHREADS=16 
 Creating input file /data/scratch/cf3h_h2o_eda2_op1_B3LYP-D3BJ_tzvppd20240605003643/Frg2.input
 using default PutDataFrgm: nothing
 calling putenv with: QCSCRATCH=/data/scratch/cf3h_h2o_eda2_op1_B3LYP-D3BJ_tzvppd20240605003643/ 
 Spawning Job For Fragment 1
 Done Job For Fragment 1
 calling putenv with: QCSCRATCH=/data/scratch 
 calling putenv with: QCTHREADS=16 
Doing General SCFMI
 Exchange:     0.2000 Hartree-Fock + 0.0800 Slater + 0.7200 B88
 Correlation:  0.1900 VWN1RPA + 0.8100 LYP
 Using Euler-Maclaurin-Lebedev (99,590) quadrature formula
 Dispersion:   Grimme D3
performing fock build before subrot guess so that all methods have access
Printing subrot_rss_gen Method Specification:
Occupied Subspace Method is 0
Virtual Subspace Method is 0
Energy of the unrelaxed supersystem initial determinant -414.872109677246
write pseudocanon occs and virts to disk
write pseudocanon orbital energies to disk
 Exchange:     0.2000 Hartree-Fock + 0.0800 Slater + 0.7200 B88
 Correlation:  0.1900 VWN1RPA + 0.8100 LYP
 Using Euler-Maclaurin-Lebedev (99,590) quadrature formula
 Dispersion:   Grimme D3
 Hartree-Fock
Doing General SCFMI
 Exchange:     0.2000 Hartree-Fock + 0.0800 Slater + 0.7200 B88
 Correlation:  0.1900 VWN1RPA + 0.8100 LYP
 Using Euler-Maclaurin-Lebedev (99,590) quadrature formula
 Dispersion:   Grimme D3
performing fock build at end of subrot_r(subrot) constructor so that all methods have access
<S^2> of initial wavefunction before polarization iterations 0.0000000000
Beginning iterations for the determination of the polarized wavefunction
Energy prior to optimization (guess energy) = -414.872109677246
Begin Timing: Total SCF Calculation
begin iterations for algorithm: DIIS         
the SCF tolerance is set to 1.00e-08
    1    -414.8721096772      1.97e-04     00000 
    2    -414.8731328426      6.87e-05     00000 
    3    -414.8731635006      6.12e-05     00000 
    4    -414.8731898050      1.24e-05     00000 
    5    -414.8731916694      3.00e-06     00000 
    6    -414.8731918562      1.32e-06     00000 
    7    -414.8731918800      5.37e-07     00000 
    8    -414.8731918822      2.71e-07     00000 
    9    -414.8731918827      1.08e-07     00000 
   10    -414.8731918828      2.82e-08     00000 
   11    -414.8731918828      1.72e-08     00000 
   12    -414.8731918828      5.22e-09     00000 Convergence criterion met
write pseudocanon occs and virts to disk
write pseudocanon orbital energies to disk
Timing for Total SCF: 22.00s (wall), 345.28s (cpu)
<S^2> of polarized wavefunction after polarization iterations 0.0000000000
Doing General SCFMI
 Exchange:     0.2000 Hartree-Fock + 0.0800 Slater + 0.7200 B88
 Correlation:  0.1900 VWN1RPA + 0.8100 LYP
 Using Euler-Maclaurin-Lebedev (99,590) quadrature formula
 Dispersion:   Grimme D3
performing fock build at end of subrot_r(subrot) constructor so that all methods have access
GDM subspace size: 20
    1       0.0008009261      5.66e-03     00000 Preconditoned Steepest Descent
    2       0.0072001479      1.70e-02     00000 LineSearch Step
    3       0.0000000003      3.48e-06     00000 BFGS Step
    4       0.0000000000      1.25e-06     00000 BFGS Step
    5       0.0000000002      2.75e-06     00000 LineSearch Step
    6       0.0000000000      3.84e-07     00000 BFGS Step
    7       0.0000000000      1.82e-08     00000 BFGS Step
GDM subspace size: 20
    1       0.0008433328      1.73e-03     00000 Preconditoned Steepest Descent
    2       0.0075795246      5.19e-03     00000 LineSearch Step
    3       0.0000000004      1.26e-06     00000 BFGS Step
    4       0.0000000001      4.27e-07     00000 BFGS Step
    5       0.0000000003      9.65e-07     00000 LineSearch Step
    6       0.0000000000      1.25e-07     00000 BFGS Step
    7       0.0000000000      5.23e-09     00000 BFGS Step
=========Fragment P Connection POL Analysis Result=========
P Connection Polarization Energy (kJ/mol)  : -2.841330
P Connection On-Fragment Charge Shift (me-): +1.543911
First Principle Polarization Energy (kJ/mol)  : -2.841330
First Principle On-Fragment Charge Shift (me-): +1.543911
___________________________________________________________
=========Fragment-wise P Connection POL Analysis=========
[Fragment 1]
E_1 (kJ/mol): -1.555266, Q_1 (me-): +0.770143
[Fragment 2]
E_2 (kJ/mol): -1.286064, Q_2 (me-): +0.773768
_________________________________________________________
==============================================================
           Fragment P Connection POL COVP Analysis            
==============================================================
Using user defined COVP significance threshold 18446744073708552.000 (kJ/mol)
--------------------------------------------------------------
 D  A  dE (kJ/mol)  dE %    dQ (me-)  dQ %    idx(D)  idx(A)
______________________________________________________________
relaxing scfmi constraint to allow all rotations in the entire AO span
Doing General SCFMI
 Exchange:     0.2000 Hartree-Fock + 0.0800 Slater + 0.7200 B88
 Correlation:  0.1900 VWN1RPA + 0.8100 LYP
 Using Euler-Maclaurin-Lebedev (99,590) quadrature formula
 Dispersion:   Grimme D3
performing fock build at end of subrot_r(subrot) constructor so that all methods have access
<S^2> of polarized wavefunction before ct-allowed iterations 0.0000000000
Beginning iterations for the determination of the CT-Allowed wavefunction
Energy prior to optimization (guess energy) = -414.873191882818
Begin Timing: Total SCF Calculation
begin iterations for algorithm: DIIS         
the SCF tolerance is set to 1.00e-08
    1    -414.8731918828      1.92e-04     00000 
    2    -414.8745750168      1.53e-05     00000 
    3    -414.8745746487      2.05e-05     00000 
    4    -414.8745831453      1.78e-06     00000 
    5    -414.8745832093      4.78e-07     00000 
    6    -414.8745832141      1.87e-07     00000 
    7    -414.8745832148      5.93e-08     00000 
    8    -414.8745832148      9.17e-09     00000 Convergence criterion met
write pseudocanon occs and virts to disk
write pseudocanon orbital energies to disk
Timing for Total SCF: 14.00s (wall), 221.46s (cpu)
<S^2> of ct_allowed wavefunction after ct-allowed iterations 0.0000000000
GDM subspace size: 20
    1       0.0016568821      1.63e-03     00000 Preconditoned Steepest Descent
    2       0.0148782000      4.88e-03     00000 LineSearch Step
    3       0.0000000021      1.84e-06     00000 BFGS Step
    4       0.0000000004      7.64e-07     00000 BFGS Step
    5       0.0000000014      1.53e-06     00000 LineSearch Step
    6       0.0000000000      2.56e-07     00000 BFGS Step
    7       0.0000000000      1.64e-08     00000 BFGS Step

==============Non-Perturbative CT Analysis Result===============
Non-Perturbative CT Energy (kJ/mol)   : -3.652942
Non-Perturbative Charge Transfer (me-): +1.656882
First Principle CT Energy (kJ/mol)    : -3.652942
First Principle Charge Transfer (me-) : +1.656882
_______________________________________________________________
========Fragment-wise Non-Perturbative CT Analysis=======
---Fragment-wise CT energies (row to col, kJ/mol)
			1			2
	1   -0.012861   -3.130549
	2   -0.486534   -0.022998
---Fragment-wise charge transfer (row to col, me-)
			1			2
	1   -0.194561    1.576589
	2    0.312486   -0.037632
_________________________________________________________
==============================================================
              Non-Perturbative CT COVP Analysis               
==============================================================
Using user defined COVP significance threshold 18446744073708552.000 (kJ/mol)
--------------------------------------------------------------
 D  A  dE (kJ/mol)  dE %    dQ (me-)  dQ %    idx(D)  idx(A)
______________________________________________________________
Done with restricted VCTA

================================
        Results of EDA2         
================================
Basic EDA Quantities
--------------------
Fragment Energies (Ha):
1  -76.4700115009
2 -338.3988433684
--------------------
  E_prp (kJ/mol) = 0.0000
  E_frz (kJ/mol) = -8.5456
  E_pol (kJ/mol) = -2.8414
  E_vct (kJ/mol) = -3.6530
  E_int (kJ/mol) = -15.0399
--------------------


Decomposition of frozen interaction energy
--------------------
  --------------------
  Classical Frozen Decomposition:
  --------------------
     E_cls_elec  (CLS ELEC)  (kJ/mol) = -21.5528
     E_mod_pauli (MOD PAULI) (kJ/mol) = 18.4112 (FRZ - CLS ELEC - CLS DISP)
     E_cls_disp  (CLS DISP)  (kJ/mol) = -5.4040
  --------------------
--------------------

Simplified EDA Summary (kJ/mol)
--------------------
 PREPARATION      0.0000
 FROZEN           -8.5456 (ELEC + PAULI + DISP)
[ELEC + PAULI = -3.1416, DISP = -5.4040]
 POLARIZATION    -2.8414
 CHARGE TRANSFER -3.6530
 TOTAL           -15.0399     (PRP + FRZ + POL + CT)
--------------------
 
 --------------------------------------------------------------
 
                    Orbital Energies (a.u.)
 --------------------------------------------------------------
 
 Alpha MOs
 -- Occupied --
-24.7118 -24.7118 -24.7116 -19.1615 -10.4102  -1.3114  -1.2250  -1.2248
 -1.0441  -0.7141  -0.5996  -0.5900  -0.5898  -0.5656  -0.4697  -0.4697
 -0.4345  -0.4340  -0.4337  -0.4127  -0.3837  -0.3490
 -- Virtual --
 -0.0296   0.0284   0.0288   0.0434   0.0592   0.0671   0.0814   0.1092
  0.1101   0.1134   0.1169   0.1275   0.1458   0.1508   0.1589   0.1702
  0.1762   0.1889   0.1908   0.1942   0.2058   0.2183   0.2451   0.2486
  0.2802   0.2866   0.3000   0.3039   0.3068   0.3069   0.3228   0.3273
  0.3365   0.3409   0.3678   0.3856   0.3865   0.4371   0.4453   0.4547
  0.4756   0.4841   0.4852   0.5245   0.5395   0.5535   0.5821   0.5836
  0.6100   0.6286   0.6311   0.6327   0.6412   0.6539   0.6760   0.6850
  0.7049   0.7455   0.7563   0.7711   0.7826   0.7904   0.7944   0.8143
  0.8268   0.8914   0.9148   0.9581   0.9776   0.9930   0.9975   1.0158
  1.0259   1.0441   1.0480   1.0974   1.1080   1.1581   1.1656   1.2028
  1.2062   1.2166   1.2181   1.2535   1.2543   1.2651   1.2960   1.3164
  1.3471   1.3517   1.3714   1.3822   1.3926   1.5964   1.7623   1.8468
  1.8596   2.0388   2.0599   2.0604   2.0720   2.0961   2.1381   2.1612
  2.2086   2.2162   2.2370   2.3351   2.3478   2.4070   2.4241   2.4914
  2.5367   2.5444   2.5640   2.6588   2.7395   2.7763   2.8079   2.8863
  2.8893   2.9062   3.1211   3.1300   3.1748   3.1768   3.2023   3.2043
  3.2301   3.2617   3.2759   3.2978   3.3443   3.3544   3.3612   3.3939
  3.4124   3.4666   3.4741   3.5415   3.5576   3.5580   3.6023   3.7766
  3.8056   3.8084   3.8383   3.8415   3.8632   3.9769   3.9922   4.0237
  4.0332   4.0626   4.0741   4.1001   4.1174   4.1654   4.1724   4.1780
  4.2727   4.3083   4.6638   4.6664   4.7581   4.7583   4.8966   5.1147
  5.1240   5.2584   5.3667   5.3703   5.5090   5.5705   6.1557   6.4148
  6.4436   6.5247   6.5803   6.7291   6.7497   6.8328   6.8405   6.8408
  6.8497   6.8497   6.8503   6.8759   6.9028   6.9028   6.9365   7.0151
  7.0167   7.0869   7.1503   7.1506   7.2066   7.3805   7.4467   7.4541
  7.4549   7.5200   7.5549   7.6037   7.6037   7.7574   8.4366   8.4546
  8.4585   8.5603   8.5655   8.6274   8.7313   8.7622   8.7637   8.9001
  9.0875   9.0903   9.1655   9.3351   9.3360  23.1643  43.9186  57.2597
 57.2649  57.3297
 --------------------------------------------------------------
 
          Ground-State Mulliken Net Atomic Charges

     Atom                 Charge (a.u.)
  ----------------------------------------
      1 O                    -0.369553
      2 H                     0.173109
      3 H                     0.173109
      4 H                    -0.010650
      5 C                     0.797189
      6 F                    -0.252763
      7 F                    -0.255221
      8 F                    -0.255221
  ----------------------------------------
  Sum of atomic charges =     0.000000

 -----------------------------------------------------------------
                    Cartesian Multipole Moments
 -----------------------------------------------------------------
    Charge (ESU x 10^10)
                -0.0000
    Dipole Moment (Debye)
         X       4.0806      Y      -0.0259      Z      -0.0000
       Tot       4.0807
    Quadrupole Moments (Debye-Ang)
        XX     -16.3378     XY       0.0362     YY     -30.3783
        XZ       0.0000     YZ      -0.0000     ZZ     -27.0018
    Octopole Moments (Debye-Ang^2)
       XXX      48.2100    XXY       0.4506    XYY      -3.4491
       YYY       1.2818    XXZ       0.0000    XYZ      -0.0000
       YYZ       0.0000    XZZ       7.4325    YZZ      -1.3410
       ZZZ      -0.0000
    Hexadecapole Moments (Debye-Ang^3)
      XXXX    -235.0154   XXXY       0.7106   XXYY    -100.1823
      XYYY      -0.8261   YYYY     -94.6036   XXXZ       0.0000
      XXYZ       0.0000   XYYZ       0.0000   YYYZ       0.0000
      XXZZ     -64.6719   XYZZ       0.6658   YYZZ     -31.7010
      XZZZ       0.0000   YZZZ      -0.0000   ZZZZ     -93.6882
 -----------------------------------------------------------------
 Total job time:  122.45s(wall), 1061.63s(cpu) 
 Wed Jun  5 00:38:46 2024

        *************************************************************
        *                                                           *
        *  Thank you very much for using Q-Chem.  Have a nice day.  *
        *                                                           *
        *************************************************************


