
Running Job 1 of 1 Me3SiH_BrCN_eda2_op1_B3LYP-D3BJ_tzvppd.in
qchem Me3SiH_BrCN_eda2_op1_B3LYP-D3BJ_tzvppd.in_1457168.0 /data/scratch/Me3SiH_BrCN_eda2_op1_B3LYP-D3BJ_tzvppd20240605004158/ 1
/opt/qchem/6.1/exe/qcprog.exe_s Me3SiH_BrCN_eda2_op1_B3LYP-D3BJ_tzvppd.in_1457168.0 /data/scratch/Me3SiH_BrCN_eda2_op1_B3LYP-D3BJ_tzvppd20240605004158/
                  Welcome to Q-Chem
     A Quantum Leap Into The Future Of Chemistry


 Q-Chem 6.1, Q-Chem, Inc., Pleasanton, CA (2023)

 E. Epifanovsky,  A. T. B. Gilbert,  Xintian Feng,  Joonho Lee,  Yuezhi Mao,  
 N. Mardirossian,  P. Pokhilko,  A. White,  M. Wormit,  M. P. Coons,  
 A. L. Dempwolff,  Zhengting Gan,  D. Hait,  P. R. Horn,  L. D. Jacobson,  
 I. Kaliman,  J. Kussmann,  A. W. Lange,  Ka Un Lao,  D. S. Levine,  Jie Liu,  
 S. C. McKenzie,  A. F. Morrison,  K. D. Nanda,  F. Plasser,  D. R. Rehn,  
 M. L. Vidal,  Zhi-Qiang You,  Ying Zhu,  B. Alam,  B. Albrecht,  
 A. Aldossary,  E. Alguire,  J. H. Andersen,  V. Athavale,  D. Barton,  
 K. Begam,  A. Behn,  N. Bellonzi,  Y. A. Bernard,  E. J. Berquist,  
 H. Burton,  A. Carreras,  K. Carter-Fenk,  Mathew Chow,  Romit Chakraborty,  
 Chandrima Chakravarty,  Junhan Chen,  A. D. Chien,  K. D. Closser,  
 V. Cofer-Shabica,  L. Cunha,  S. Dasgupta,  Jia Deng,  M. de Wergifosse,  
 M. Diedenhofen,  Hainam Do,  S. Ehlert,  Po-Tung Fang,  S. Fatehi,  
 Qingguo Feng,  T. Friedhoff,  Thomas Froitzheim,  B. Ganoe,  J. Gayvert,  
 Qinghui Ge,  G. Gidofalvi,  M. Gimferrer,  M. Goldey,  Montgomery Gray,  
 J. Gomes,  C. Gonzalez-Espinoza,  S. Gulania,  A. Gunina,  J. A. Gyamfi,  
 M. W. D. Hanson-Heine,  P. H. P. Harbach,  A. W. Hauser,  M. F. Herbst,  
 M. Hernandez Vera,  M. Hodecker,  Z. C. Holden,  S. Houck,  Xunkun Huang,  
 Kerwin Hui,  B. C. Huynh,  K. Ikeda,  M. Ivanov,  Hyunjun Ji,  Zuxin Jin,  
 Hanjie Jiang,  Subrata Jana,  B. Kaduk,  S. Kaehler,  R. Kang,  
 K. Khistyaev,  Jaehoon Kim,  Yongbin Kim,  P. Klunzinger,  Z. Koczor-Benda,  
 Joong Hoon Koh,  D. Kosenkov,  Saikiran Kotaru,  L. Koulias,  T. Kowalczyk,  
 C. M. Krauter,  K. Kue,  A. Kunitsa,  T. Kus,  A. Landau,  K. V. Lawler,  
 D. Lefrancois,  S. Lehtola,  Rain Li,  Shaozhi Li,  Yi-Pei Li,  
 Jiashu Liang,  M. Liebenthal,  Hung-Hsuan Lin,  You-Sheng Lin,  Fenglai Liu,  
 Kuan-Yu Liu,  Xiao Liu,  M. Loipersberger,  A. Luenser,  C. Malbon,  
 A. Manjanath,  P. Manohar,  E. Mansoor,  S. F. Manzer,  Shan-Ping Mao,  
 A. V. Marenich,  T. Markovich,  S. Mason,  F. Matz,  S. A. Maurer,  
 P. F. McLaughlin,  M. F. S. J. Menger,  J.-M. Mewes,  S. A. Mewes,  
 P. Morgante,  Mohammad Mostafanejad,  J. W. Mullinax,  K. J. Oosterbaan,  
 G. Paran,  V. Parravicini,  Alexander C. Paul,  Suranjan K. Paul,  
 F. Pavosevic,  Zheng Pei,  S. Prager,  E. I. Proynov,  E. Ramos,  B. Rana,  
 A. E. Rask,  A. Rettig,  R. M. Richard,  F. Rob,  E. Rossomme,  T. Scheele,  
 M. Scheurer,  M. Schneider,  P. E. Schneider,  Tim K. Schramm,  N. Sergueev,  
 S. M. Sharada,  M. Sharma,  Hengyuan Shen,  W. Skomorowski,  D. W. Small,  
 C. J. Stein,  Alistair J. Sterling,  Yingli Su,  Yu-Chuan Su,  
 E. J. Sundstrom,  J. Talbot,  Zhen Tao,  J. Thirman,  Hung-Yi Tsai,  
 T. Tsuchimochi,  N. M. Tubman,  C. Utku,  S. P. Veccham,  O. Vydrov,  
 J. Wenzel,  Jonathan Wong,  J. Witte,  A. Yamada,  Chou-Hsun Yang,  Kun Yao,  
 S. Yeganeh,  S. R. Yost,  A. Zech,  F. Zeller,  Igor Ying Zhang,  
 Xing Zhang,  Yu Zhang,  D. Zuev,  A. Aspuru-Guzik,  A. T. Bell,  
 N. A. Besley,  K. B. Bravaya,  B. R. Brooks,  D. Casanova,  Jeng-Da Chai,  
 Hsing-Ta Chen,  S. Coriani,  C. J. Cramer,  A. E. DePrince, III,  
 R. A. DiStasio Jr.,  A. Dreuw,  B. D. Dunietz,  T. R. Furlani,  
 W. A. Goddard III,  S. Grimme,  S. Hammes-Schiffer,  T. Head-Gordon,  
 W. J. Hehre,  Chao-Ping Hsu,  T.-C. Jagau,  Yousung Jung,  A. Klamt,  
 Jing Kong,  D. S. Lambrecht,  Xiangyuan Li,  WanZhen Liang,  N. J. Mayhall,  
 C. W. McCurdy,  J. B. Neaton,  T. Neudecker,  C. Ochsenfeld,  
 J. A. Parkhill,  R. Peverati,  V. A. Rassolov,  Haisheng Ren,  Yihan Shao,  
 L. V. Slipchenko,  R. P. Steele,  J. E. Subotnik,  A. J. W. Thom,  
 A. Tkatchenko,  D. G. Truhlar,  T. Van Voorhis,  Fan Wang,  
 T. A. Wesolowski,  K. B. Whaley,  H. L. Woodcock III,  P. M. Zimmerman,  
 S. Faraji,  P. M. W. Gill,  M. Head-Gordon,  J. M. Herbert,  A. I. Krylov

 Contributors to earlier versions of Q-Chem not listed above: 
 R. D. Adamson,  B. Austin,  R. Baer,  J. Baker,  G. J. O. Beran,  
 K. Brandhorst,  S. T. Brown,  E. F. C. Byrd,  Arup K. Chakraborty,  
 G. K. L. Chan,  Chun-Min Chang,  Yunqing Chen,  C.-L. Cheng,  
 Siu Hung Chien,  D. M. Chipman,  D. L. Crittenden,  H. Dachsel,  
 R. J. Doerksen,  A. D. Dutoi,  R. G. Edgar,  J. Fosso-Tande,  
 L. Fusti-Molnar,  D. Ghosh,  A. Ghysels,  A. Golubeva-Zadorozhnaya,  
 J. Gonthier,  M. S. Gordon,  S. R. Gwaltney,  G. Hawkins,  J. E. Herr,  
 A. Heyden,  S. Hirata,  E. G. Hohenstein,  G. Kedziora,  F. J. Keil,  
 C. Kelley,  Jihan Kim,  R. A. King,  R. Z. Khaliullin,  P. P. Korambath,  
 W. Kurlancheek,  A. Laurent,  A. M. Lee,  M. S. Lee,  S. V. Levchenko,  
 Ching Yeh Lin,  D. Liotard,  E. Livshits,  R. C. Lochan,  I. Lotan,  
 L. A. Martinez-Martinez,  P. E. Maslen,  N. Nair,  D. P. O'Neill,  
 D. Neuhauser,  E. Neuscamman,  C. M. Oana,  R. Olivares-Amaya,  R. Olson,  
 T. M. Perrine,  B. Peters,  P. A. Pieniazek,  A. Prociuk,  Y. M. Rhee,  
 J. Ritchie,  M. A. Rohrdanz,  E. Rosta,  N. J. Russ,  H. F. Schaefer III,  
 M. W. Schmidt,  N. E. Schultz,  S. Sharma,  N. Shenvi,  C. D. Sherrill,  
 A. C. Simmonett,  A. Sodt,  T. Stein,  D. Stuck,  K. S. Thanthiriwatte,  
 V. Vanovschi,  L. Vogt,  Tao Wang,  A. Warshel,  M. A. Watson,  
 C. F. Williams,  Q. Wu,  X. Xu,  Jun Yang,  W. Zhang,  Yan Zhao

   Please cite Q-Chem as follows:
  "Software for the frontiers of quantum chemistry:
   An overview of developments in the Q-Chem 5 package"
   J. Chem. Phys. 155, 084801 (2021)
   https://doi.org/10.1063/5.0055522 (open access)

 Q-Chem 6.1.1 for Intel X86 EM64T Linux

 Parts of Q-Chem use Armadillo 9.900.5 (Nocturnal Misbehaviour).
 http://arma.sourceforge.net/

 Q-Chem begins on Wed Jun  5 00:41:58 2024  

 Host: 
0

     Scratch files written to /data/scratch/Me3SiH_BrCN_eda2_op1_B3LYP-D3BJ_tzvppd20240605004158//
 Jan1824 |scratch|qcdevops|jenkins|workspace|build_RNUM -1
 Processing $rem in /opt/qchem/6.1/config/preferences:
 Processing $rem in /home/ymao/.qchemrc:

 Q-Chem warning in module libgen/rem_setup.C, line 3361:

 Neither GIA nor STOLL is specified by user. Use STOLL as the default


 Checking the input file for inconsistencies... 	...done.

--------------------------------------------------------------
User input:
--------------------------------------------------------------
$molecule
0 1
--
0 1
H    1.14950    0.00107    1.18854
Si   2.17975    0.00039    0.08841
C    3.88313    0.00175    0.88886
C    1.92615    -1.54897   -0.95234
C    1.92508    1.54757    -0.95530
H    4.02781    0.89256    1.52061
H    4.67490    0.00132    0.12166
H    4.02845    -0.88778   1.52227
H    2.02349    -2.46250   -0.34404
H    0.92908    -1.56142   -1.42116
H    2.67431    -1.60301   -1.76029
H    0.92805    1.55836    -1.42427
H    2.02164    2.46233    -0.34873
H    2.67329    1.60065    -1.76326
--
0 1
Br   -1.53983   -0.00030   0.38107
C    -3.22135   -0.00114   -0.24704
N    -4.30510   -0.00173   -0.65258
$end

$rem
JOBTYPE  EDA
EDA2  1
METHOD  B3LYP
BASIS  DEF2-TZVPPD
SYMMETRY  FALSE
SYM_IGNORE  TRUE
MEM_TOTAL  8000
MEM_STATIC  2000
BASIS_LIN_DEP_THRESH  6
THRESH  14
SCF_CONVERGENCE  8
GEN_SCFMAN  TRUE
MAXSCF  200
FD_MAT_VEC_PROD  FALSE
XC_GRID  000099000590
NL_GRID  1
DFT_D  D3_BJ
SCF_GUESS  FRAGMO
FRZ_ORTHO_DECOMP  -1
EDA_CLS_DISP  TRUE
EDA_POL_A  TRUE
EDA_VCT_A  TRUE
$end
--------------------------------------------------------------
 Adding empirical dispersion correction 
 ----------------------------------------------------------------
 Doing -D3(BJ) with
 s6  =   1.00000
 s8  =   1.98890
 a1  =   0.39810
 a2  =   4.42110
 ----------------------------------------------------------------
 -D3 energy without 3body term =     -0.0256596142 hartrees
 ----------------------------------------------------------------
             Standard Nuclear Orientation (Angstroms)
    I     Atom           X                Y                Z
 ----------------------------------------------------------------
    1      H       1.1495000000     0.0010700000     1.1885400000
    2      Si      2.1797500000     0.0003900000     0.0884100000
    3      C       3.8831300000     0.0017500000     0.8888600000
    4      C       1.9261500000    -1.5489700000    -0.9523400000
    5      C       1.9250800000     1.5475700000    -0.9553000000
    6      H       4.0278100000     0.8925600000     1.5206100000
    7      H       4.6749000000     0.0013200000     0.1216600000
    8      H       4.0284500000    -0.8877800000     1.5222700000
    9      H       2.0234900000    -2.4625000000    -0.3440400000
   10      H       0.9290800000    -1.5614200000    -1.4211600000
   11      H       2.6743100000    -1.6030100000    -1.7602900000
   12      H       0.9280500000     1.5583600000    -1.4242700000
   13      H       2.0216400000     2.4623300000    -0.3487300000
   14      H       2.6732900000     1.6006500000    -1.7632600000
   15      Br     -1.5398300000    -0.0003000000     0.3810700000
   16      C      -3.2213500000    -0.0011400000    -0.2470400000
   17      N      -4.3051000000    -0.0017300000    -0.6525800000
 ----------------------------------------------------------------
 Nuclear Repulsion Energy =         533.20179846 hartrees
 There are       45 alpha and       45 beta electrons
 Requested basis set is def2-TZVPPD
 There are 170 shells and 460 basis functions

 Total QAlloc Memory Limit   8000 MB
 Mega-Array Size      1956 MB
 MEM_STATIC part      2000 MB

 A cutoff of  1.0D-14 yielded  12519 shell pairs
 There are     90607 function pairs (    112758 Cartesian)
 Smallest overlap matrix eigenvalue = 2.10E-05

 Scale SEOQF with 1.000000e-01/1.000000e-01/1.000000e-01

 Standard Electronic Orientation quadrupole field applied
 Nucleus-field energy     =     0.0000000192 hartrees

 -----------------------------------------------------------------------
  General SCF calculation program by
  Eric Jon Sundstrom, Paul Horn, Yuezhi Mao, Dmitri Zuev, Alec White,
  David Stuck, Shaama M.S., Shane Yost, Joonho Lee, David Small,
  Daniel Levine, Susi Lehtola, Hugh Burton, Evgeny Epifanovsky,
  Bang C. Huynh
 -----------------------------------------------------------------------
================================================================
                 ALMO-EDA with the EDA2 driver                  
================================================================
 The second-generation ALMO-EDA (for DFT):                      
 P. R. Horn, Y. Mao and M. Head-Gordon, PCCP, 18, 23067 (2016)  
 Y. Mao et al. Annu. Rev. Phys. Chem. 72, 641 (2021)            
 Decomposition of the frozen energy:                            
 P. R. Horn, Y. Mao and M. Head-Gordon, JCP, 144, 114107 (2016) 
 FERF model for polarization:                                   
 P. R. Horn and M. Head-Gordon, JCP, 143, 114111 (2015)         
================================================================
 Using eda2 option set 1
 Option set summary: Frozen orbital wavefunction, initial wavefunction decomposition, and nDQ polarization.
--------------------------------
Printing EDA Options
--------------------------------
eda_child_super_basis      0
fragmo_guess_mode          0
child_mp                   1
child_mp_orders            232
cls_elec                   1
cls_disp                   1
scfmi_mode                 1
scfmi_occs                 0
scfmi_virts                0
frz_relax                  0
frz_relax_method           0
dc_pen_start               0
dc_pen_conv                0
dc_pen_increment           0
dc_pen_steps               0
dc_pen_thresh_factor       0
dc_pen_pre_newton_thresh   0
frz_ortho_decomp           0
frz_ortho_decomp_conv      6
plot_mo_ortho_frz          0
frgm_method                2
scfmi_freeze_ss            0
separate_rehyb             0
plot_diff_den              0
eda_nocv                   0
eda_vct_relax              1
disp_free_x                0
disp_free_c                0
eda_bsse                   0
eda_pct_a                  0
eda_covp                   0
eda_vct_a                  1
--------------------------------
 Attempting to make child job directory: /data/scratch/Me3SiH_BrCN_eda2_op1_B3LYP-D3BJ_tzvppd20240605004158//Frg1/
 Attempting to make child job directory: /data/scratch/Me3SiH_BrCN_eda2_op1_B3LYP-D3BJ_tzvppd20240605004158//Frg2/
 Creating input file /data/scratch/Me3SiH_BrCN_eda2_op1_B3LYP-D3BJ_tzvppd20240605004158/Frg1.input
 using default PutDataFrgm: nothing
 calling putenv with: QCSCRATCH=/data/scratch/Me3SiH_BrCN_eda2_op1_B3LYP-D3BJ_tzvppd20240605004158/ 
 Spawning Job For Fragment 0
 Done Job For Fragment 0
 calling putenv with: QCSCRATCH=/data/scratch 
 calling putenv with: QCTHREADS=16 
 Creating input file /data/scratch/Me3SiH_BrCN_eda2_op1_B3LYP-D3BJ_tzvppd20240605004158/Frg2.input
 using default PutDataFrgm: nothing
 calling putenv with: QCSCRATCH=/data/scratch/Me3SiH_BrCN_eda2_op1_B3LYP-D3BJ_tzvppd20240605004158/ 
 Spawning Job For Fragment 1
 Done Job For Fragment 1
 calling putenv with: QCSCRATCH=/data/scratch 
 calling putenv with: QCTHREADS=16 
Doing General SCFMI
 Exchange:     0.2000 Hartree-Fock + 0.0800 Slater + 0.7200 B88
 Correlation:  0.1900 VWN1RPA + 0.8100 LYP
 Using Euler-Maclaurin-Lebedev (99,590) quadrature formula
 Dispersion:   Grimme D3
performing fock build before subrot guess so that all methods have access
Printing subrot_rss_gen Method Specification:
Occupied Subspace Method is 0
Virtual Subspace Method is 0
Energy of the unrelaxed supersystem initial determinant -3077.012314776498
write pseudocanon occs and virts to disk
write pseudocanon orbital energies to disk
 Exchange:     0.2000 Hartree-Fock + 0.0800 Slater + 0.7200 B88
 Correlation:  0.1900 VWN1RPA + 0.8100 LYP
 Using Euler-Maclaurin-Lebedev (99,590) quadrature formula
 Dispersion:   Grimme D3
 Hartree-Fock
Doing General SCFMI
 Exchange:     0.2000 Hartree-Fock + 0.0800 Slater + 0.7200 B88
 Correlation:  0.1900 VWN1RPA + 0.8100 LYP
 Using Euler-Maclaurin-Lebedev (99,590) quadrature formula
 Dispersion:   Grimme D3
performing fock build at end of subrot_r(subrot) constructor so that all methods have access
<S^2> of initial wavefunction before polarization iterations 0.0000000000
Beginning iterations for the determination of the polarized wavefunction
Energy prior to optimization (guess energy) = -3077.012314776496
Begin Timing: Total SCF Calculation
begin iterations for algorithm: DIIS         
the SCF tolerance is set to 1.00e-08
    1   -3077.0123147765      1.13e-04     00000 
    2   -3077.0131319125      6.22e-05     00000 
    3   -3077.0132316627      3.50e-05     00000 
    4   -3077.0132450511      2.88e-05     00000 
    5   -3077.0132563077      1.82e-05     00000 
    6   -3077.0132610520      9.10e-06     00000 
    7   -3077.0132618143      4.60e-06     00000 
    8   -3077.0132621250      1.88e-06     00000 
    9   -3077.0132622176      8.57e-07     00000 
   10   -3077.0132622559      4.22e-07     00000 
   11   -3077.0132622669      1.45e-07     00000 
   12   -3077.0132622680      6.06e-08     00000 
   13   -3077.0132622681      2.75e-08     00000 
   14   -3077.0132622681      1.52e-08     00000 
   15   -3077.0132622681      6.02e-09     00000 Convergence criterion met
write pseudocanon occs and virts to disk
write pseudocanon orbital energies to disk
Timing for Total SCF: 297.00s (wall), 3657.95s (cpu)
<S^2> of polarized wavefunction after polarization iterations 0.0000000000
Doing General SCFMI
 Exchange:     0.2000 Hartree-Fock + 0.0800 Slater + 0.7200 B88
 Correlation:  0.1900 VWN1RPA + 0.8100 LYP
 Using Euler-Maclaurin-Lebedev (99,590) quadrature formula
 Dispersion:   Grimme D3
performing fock build at end of subrot_r(subrot) constructor so that all methods have access
GDM subspace size: 20
    1       0.0016651826      1.94e-03     00000 Preconditoned Steepest Descent
    2       0.0149502322      5.81e-03     00000 LineSearch Step
    3       0.0000000024      2.34e-06     00000 BFGS Step
    4       0.0000000004      9.73e-07     00000 BFGS Step
    5       0.0000000017      1.94e-06     00000 LineSearch Step
    6       0.0000000000      3.26e-07     00000 BFGS Step
    7       0.0000000000      2.11e-08     00000 BFGS Step
GDM subspace size: 20
    1       0.0002615223      9.03e-04     00000 Preconditoned Steepest Descent
    2       0.0023531003      2.71e-03     00000 LineSearch Step
    3       0.0000000000      1.95e-07     00000 BFGS Step
    4       0.0000000000      5.47e-08     00000 BFGS Step
    5       0.0000000000      1.35e-07     00000 LineSearch Step
    6       0.0000000000      1.39e-08     00000 BFGS Step
    7       0.0000000000      3.89e-10     00000 BFGS Step
=========Fragment P Connection POL Analysis Result=========
P Connection Polarization Energy (kJ/mol)  : -2.487639
P Connection On-Fragment Charge Shift (me-): +1.671047
First Principle Polarization Energy (kJ/mol)  : -2.487639
First Principle On-Fragment Charge Shift (me-): +1.671047
___________________________________________________________
=========Fragment-wise P Connection POL Analysis=========
[Fragment 1]
E_1 (kJ/mol): -2.155763, Q_1 (me-): +1.434908
[Fragment 2]
E_2 (kJ/mol): -0.331875, Q_2 (me-): +0.236140
_________________________________________________________
==============================================================
           Fragment P Connection POL COVP Analysis            
==============================================================
Using user defined COVP significance threshold 18446744073708552.000 (kJ/mol)
--------------------------------------------------------------
 D  A  dE (kJ/mol)  dE %    dQ (me-)  dQ %    idx(D)  idx(A)
______________________________________________________________
relaxing scfmi constraint to allow all rotations in the entire AO span
Doing General SCFMI
 Exchange:     0.2000 Hartree-Fock + 0.0800 Slater + 0.7200 B88
 Correlation:  0.1900 VWN1RPA + 0.8100 LYP
 Using Euler-Maclaurin-Lebedev (99,590) quadrature formula
 Dispersion:   Grimme D3
performing fock build at end of subrot_r(subrot) constructor so that all methods have access
<S^2> of polarized wavefunction before ct-allowed iterations 0.0000000000
Beginning iterations for the determination of the CT-Allowed wavefunction
Energy prior to optimization (guess energy) = -3077.013262268084
Begin Timing: Total SCF Calculation
begin iterations for algorithm: DIIS         
the SCF tolerance is set to 1.00e-08
    1   -3077.0132622681      1.85e-04     00000 
    2   -3077.0155930237      8.41e-06     00000 
    3   -3077.0156058078      8.13e-06     00000 
    4   -3077.0156096056      6.16e-06     00000 
    5   -3077.0156127301      1.55e-06     00000 
    6   -3077.0156129639      3.38e-07     00000 
    7   -3077.0156129750      8.85e-08     00000 
    8   -3077.0156129757      1.26e-08     00000 
    9   -3077.0156129757      6.84e-09     00000 Convergence criterion met
write pseudocanon occs and virts to disk
write pseudocanon orbital energies to disk
Timing for Total SCF: 143.00s (wall), 1972.22s (cpu)
<S^2> of ct_allowed wavefunction after ct-allowed iterations 0.0000000000
GDM subspace size: 20
    1       0.0056661330      1.56e-03     00000 Preconditoned Steepest Descent
    2       0.0505239345      4.61e-03     00000 LineSearch Step
    3       0.0000001039      6.67e-06     00000 BFGS Step
    4       0.0000000154      2.56e-06     00000 BFGS Step
    5       0.0000000678      5.39e-06     00000 LineSearch Step
    6       0.0000000016      8.23e-07     00000 BFGS Step
    7       0.0000000000      4.55e-08     00000 BFGS Step

==============Non-Perturbative CT Analysis Result===============
Non-Perturbative CT Energy (kJ/mol)   : -6.171782
Non-Perturbative Charge Transfer (me-): +5.666133
First Principle CT Energy (kJ/mol)    : -6.171782
First Principle Charge Transfer (me-) : +5.666133
_______________________________________________________________
========Fragment-wise Non-Perturbative CT Analysis=======
---Fragment-wise CT energies (row to col, kJ/mol)
			1			2
	1   -0.051330   -4.680302
	2   -1.429783   -0.010367
---Fragment-wise charge transfer (row to col, me-)
			1			2
	1   -0.058775    5.106906
	2    0.751092   -0.133090
_________________________________________________________
==============================================================
              Non-Perturbative CT COVP Analysis               
==============================================================
Using user defined COVP significance threshold 18446744073708552.000 (kJ/mol)
--------------------------------------------------------------
 D  A  dE (kJ/mol)  dE %    dQ (me-)  dQ %    idx(D)  idx(A)
______________________________________________________________
Done with restricted VCTA

================================
        Results of EDA2         
================================
Basic EDA Quantities
--------------------
Fragment Energies (Ha):
1 -409.9689675167
2-2667.0413438558
--------------------
  E_prp (kJ/mol) = -0.0000
  E_frz (kJ/mol) = -5.2600
  E_pol (kJ/mol) = -2.4877
  E_vct (kJ/mol) = -6.1719
  E_int (kJ/mol) = -13.9195
--------------------


Decomposition of frozen interaction energy
--------------------
  --------------------
  Classical Frozen Decomposition:
  --------------------
     E_cls_elec  (CLS ELEC)  (kJ/mol) = -12.1228
     E_mod_pauli (MOD PAULI) (kJ/mol) = 21.3867 (FRZ - CLS ELEC - CLS DISP)
     E_cls_disp  (CLS DISP)  (kJ/mol) = -14.5239
  --------------------
--------------------

Simplified EDA Summary (kJ/mol)
--------------------
 PREPARATION      -0.0000
 FROZEN           -5.2600 (ELEC + PAULI + DISP)
[ELEC + PAULI = 9.2639, DISP = -14.5239]
 POLARIZATION    -2.4877
 CHARGE TRANSFER -6.1719
 TOTAL           -13.9195     (PRP + FRZ + POL + CT)
--------------------
 
 --------------------------------------------------------------
 
                    Orbital Energies (a.u.)
 --------------------------------------------------------------
 
 Alpha MOs
 -- Occupied --
 -482.93254   -66.10518   -62.57862   -56.39559   -56.39114   -56.39113
  -14.33991   -10.26071   -10.16341   -10.16304   -10.16303    -8.76884
   -6.60029    -6.58607    -6.58605    -5.26727    -3.62575    -3.62473
   -3.62471    -2.71463    -2.71025    -2.71022    -2.69890    -2.69890
   -0.93621    -0.86199    -0.72560    -0.69049    -0.69027    -0.54866
   -0.48971    -0.43140    -0.42215    -0.42080    -0.41160    -0.41023
   -0.40396    -0.40376    -0.39493    -0.38844    -0.32768    -0.32533
   -0.32525    -0.31950    -0.31889
 -- Virtual --
   -0.04601    -0.01058    -0.00368    -0.00342     0.00862     0.01357
    0.01738     0.03202     0.03876     0.04544     0.05437     0.05680
    0.06532     0.06660     0.07288     0.08199     0.08727     0.08748
    0.09096     0.09744     0.10025     0.10479     0.10988     0.11966
    0.12328     0.13299     0.13994     0.14113     0.15036     0.15850
    0.16852     0.17237     0.18054     0.18145     0.19249     0.19889
    0.20713     0.20860     0.21022     0.21852     0.22791     0.23385
    0.23947     0.24719     0.24944     0.25042     0.25465     0.26286
    0.26529     0.26757     0.27328     0.27828     0.27962     0.28075
    0.28342     0.29235     0.29269     0.29853     0.31011     0.31721
    0.31828     0.32280     0.32596     0.33815     0.34663     0.35143
    0.35458     0.36297     0.37634     0.37751     0.38638     0.38764
    0.39100     0.39884     0.39939     0.40387     0.41156     0.41808
    0.43318     0.43381     0.43791     0.44149     0.44240     0.44772
    0.44988     0.45522     0.45615     0.45901     0.46897     0.47897
    0.48378     0.49281     0.49690     0.49699     0.50802     0.51043
    0.52192     0.53307     0.54055     0.54062     0.55299     0.56877
    0.57016     0.57823     0.57920     0.59056     0.60126     0.61034
    0.62026     0.62485     0.63956     0.64379     0.65027     0.65252
    0.65757     0.66139     0.66656     0.67491     0.68689     0.69208
    0.70362     0.70811     0.71550     0.71637     0.71887     0.72176
    0.72541     0.74996     0.75692     0.76102     0.77862     0.78347
    0.78966     0.80934     0.81574     0.82278     0.82672     0.82982
    0.83486     0.87054     0.87223     0.88434     0.89784     0.89837
    0.92005     0.95201     0.97885     1.01844     1.02996     1.03142
    1.03685     1.04209     1.05424     1.06624     1.07461     1.08065
    1.10051     1.17239     1.17384     1.17544     1.17882     1.18877
    1.19862     1.20114     1.20799     1.21689     1.23755     1.24236
    1.25601     1.28818     1.33597     1.34502     1.34588     1.35524
    1.35816     1.36038     1.37326     1.38399     1.39170     1.39187
    1.40435     1.44143     1.45260     1.45284     1.46566     1.47273
    1.48512     1.48628     1.48794     1.51291     1.51968     1.53008
    1.53108     1.53578     1.54123     1.55034     1.55815     1.56669
    1.57020     1.58530     1.60222     1.60679     1.60945     1.61190
    1.63142     1.63687     1.66555     1.66932     1.71313     1.71458
    1.72338     1.72504     1.72551     1.74106     1.74386     1.76209
    1.77622     1.78576     1.80035     1.80823     1.83625     1.84721
    1.86797     1.87998     1.89781     1.89882     1.91062     2.03092
    2.04061     2.04622     2.09508     2.10368     2.12237     2.22607
    2.22618     2.25456     2.30878     2.32839     2.44891     2.49203
    2.56553     2.56581     2.59123     2.62233     2.62251     2.63713
    2.76662     2.76948     2.77598     2.78795     2.82141     2.82190
    2.82506     2.83020     2.83456     2.84957     2.86007     2.87230
    2.87461     2.87742     2.89647     2.89887     2.91578     2.91996
    2.94831     2.96648     2.96755     3.00471     3.02056     3.04665
    3.04862     3.04962     3.05306     3.06071     3.06695     3.08815
    3.08847     3.12527     3.13168     3.16125     3.19230     3.20219
    3.21829     3.22069     3.22991     3.27712     3.35349     3.37335
    3.38001     3.39656     3.41282     3.41638     3.43754     3.44658
    3.45577     3.46359     3.47317     3.48902     3.49167     3.51819
    3.54324     3.55111     3.55674     3.57978     3.58313     3.58528
    3.60006     3.61850     3.65275     3.66446     3.70306     3.70700
    3.71890     3.72859     3.76570     3.82515     3.88912     3.90108
    3.91531     3.95353     3.95354     3.96895     3.97025     3.98362
    4.00690     4.00927     4.03194     4.03861     4.04471     4.08272
    4.10185     4.10333     4.12622     4.14062     4.16207     4.16469
    4.18667     4.18979     4.23283     4.25476     4.25618     4.27992
    4.28501     4.28811     4.29735     4.30558     4.31334     4.33402
    4.35010     4.35314     4.37510     4.38774     4.49885     4.49941
    4.55369     4.55696     4.58028     4.58872     4.58898     4.60333
    4.61270     4.68208     4.69545     4.71410     4.71597     4.71809
    4.79100     4.84827     4.85098     5.01795     5.03660     5.03756
    5.04933     5.05353     5.06391     5.06402     5.08576     5.10716
    5.10941     5.14931     5.16346     5.17083     5.17389     5.23533
    5.24874     5.25493     5.32419     5.32950     5.34589     5.37564
    5.37615     5.41009     5.45179     5.45783     5.46752     5.56430
    5.58056     5.58953     5.64882     5.66147     5.66874     5.68393
    5.69270     5.69985     5.82462     6.74301     6.76225     6.86332
    8.14804    12.23213    22.93547    23.50369    23.50838    23.52774
   32.32591
 --------------------------------------------------------------
 
          Ground-State Mulliken Net Atomic Charges

     Atom                 Charge (a.u.)
  ----------------------------------------
      1 H                    -0.204809
      2 Si                    0.320978
      3 C                    -0.380217
      4 C                    -0.380666
      5 C                    -0.380656
      6 H                     0.101364
      7 H                     0.127982
      8 H                     0.101363
      9 H                     0.117274
     10 H                     0.117988
     11 H                     0.124720
     12 H                     0.117998
     13 H                     0.117276
     14 H                     0.124716
     15 Br                    0.097047
     16 C                     0.125112
     17 N                    -0.247469
  ----------------------------------------
  Sum of atomic charges =     0.000000

 -----------------------------------------------------------------
                    Cartesian Multipole Moments
 -----------------------------------------------------------------
    Charge (ESU x 10^10)
                -0.0000
    Dipole Moment (Debye)
         X       4.2130      Y       0.0015      Z       0.6622
       Tot       4.2648
    Quadrupole Moments (Debye-Ang)
        XX     -81.2154     XY      -0.0086     YY     -64.4194
        XZ      -4.8869     YZ      -0.0021     ZZ     -65.3037
    Octopole Moments (Debye-Ang^2)
       XXX      60.3040    XXY       0.0538    XYY     -15.1675
       YYY       0.0531    XXZ      20.3467    XYZ       0.0054
       YYZ       8.2613    XZZ     -11.9401    YZZ       0.0073
       ZZZ      12.8977
    Hexadecapole Moments (Debye-Ang^3)
      XXXX   -3252.2761   XXXY      -0.5541   XXYY    -507.9263
      XYYY      -0.2740   YYYY    -345.8722   XXXZ    -159.2796
      XXYZ      -0.0448   XYYZ      -3.3033   YYYZ       0.0197
      XXZZ    -510.2380   XYZZ      -0.1257   YYZZ    -105.1648
      XZZZ     -43.5779   YZZZ       0.0211   ZZZZ    -277.9338
 -----------------------------------------------------------------
 Total job time:  1438.25s(wall), 9709.40s(cpu) 
 Wed Jun  5 01:05:56 2024

        *************************************************************
        *                                                           *
        *  Thank you very much for using Q-Chem.  Have a nice day.  *
        *                                                           *
        *************************************************************


