
Running Job 1 of 1 Me3SiH_NO2F_eda2_op1_B3LYP-D3BJ_tzvppd.in
qchem Me3SiH_NO2F_eda2_op1_B3LYP-D3BJ_tzvppd.in_1457228.0 /data/scratch/Me3SiH_NO2F_eda2_op1_B3LYP-D3BJ_tzvppd20240605004158/ 1
/opt/qchem/6.1/exe/qcprog.exe_s Me3SiH_NO2F_eda2_op1_B3LYP-D3BJ_tzvppd.in_1457228.0 /data/scratch/Me3SiH_NO2F_eda2_op1_B3LYP-D3BJ_tzvppd20240605004158/
                  Welcome to Q-Chem
     A Quantum Leap Into The Future Of Chemistry


 Q-Chem 6.1, Q-Chem, Inc., Pleasanton, CA (2023)

 E. Epifanovsky,  A. T. B. Gilbert,  Xintian Feng,  Joonho Lee,  Yuezhi Mao,  
 N. Mardirossian,  P. Pokhilko,  A. White,  M. Wormit,  M. P. Coons,  
 A. L. Dempwolff,  Zhengting Gan,  D. Hait,  P. R. Horn,  L. D. Jacobson,  
 I. Kaliman,  J. Kussmann,  A. W. Lange,  Ka Un Lao,  D. S. Levine,  Jie Liu,  
 S. C. McKenzie,  A. F. Morrison,  K. D. Nanda,  F. Plasser,  D. R. Rehn,  
 M. L. Vidal,  Zhi-Qiang You,  Ying Zhu,  B. Alam,  B. Albrecht,  
 A. Aldossary,  E. Alguire,  J. H. Andersen,  V. Athavale,  D. Barton,  
 K. Begam,  A. Behn,  N. Bellonzi,  Y. A. Bernard,  E. J. Berquist,  
 H. Burton,  A. Carreras,  K. Carter-Fenk,  Mathew Chow,  Romit Chakraborty,  
 Chandrima Chakravarty,  Junhan Chen,  A. D. Chien,  K. D. Closser,  
 V. Cofer-Shabica,  L. Cunha,  S. Dasgupta,  Jia Deng,  M. de Wergifosse,  
 M. Diedenhofen,  Hainam Do,  S. Ehlert,  Po-Tung Fang,  S. Fatehi,  
 Qingguo Feng,  T. Friedhoff,  Thomas Froitzheim,  B. Ganoe,  J. Gayvert,  
 Qinghui Ge,  G. Gidofalvi,  M. Gimferrer,  M. Goldey,  Montgomery Gray,  
 J. Gomes,  C. Gonzalez-Espinoza,  S. Gulania,  A. Gunina,  J. A. Gyamfi,  
 M. W. D. Hanson-Heine,  P. H. P. Harbach,  A. W. Hauser,  M. F. Herbst,  
 M. Hernandez Vera,  M. Hodecker,  Z. C. Holden,  S. Houck,  Xunkun Huang,  
 Kerwin Hui,  B. C. Huynh,  K. Ikeda,  M. Ivanov,  Hyunjun Ji,  Zuxin Jin,  
 Hanjie Jiang,  Subrata Jana,  B. Kaduk,  S. Kaehler,  R. Kang,  
 K. Khistyaev,  Jaehoon Kim,  Yongbin Kim,  P. Klunzinger,  Z. Koczor-Benda,  
 Joong Hoon Koh,  D. Kosenkov,  Saikiran Kotaru,  L. Koulias,  T. Kowalczyk,  
 C. M. Krauter,  K. Kue,  A. Kunitsa,  T. Kus,  A. Landau,  K. V. Lawler,  
 D. Lefrancois,  S. Lehtola,  Rain Li,  Shaozhi Li,  Yi-Pei Li,  
 Jiashu Liang,  M. Liebenthal,  Hung-Hsuan Lin,  You-Sheng Lin,  Fenglai Liu,  
 Kuan-Yu Liu,  Xiao Liu,  M. Loipersberger,  A. Luenser,  C. Malbon,  
 A. Manjanath,  P. Manohar,  E. Mansoor,  S. F. Manzer,  Shan-Ping Mao,  
 A. V. Marenich,  T. Markovich,  S. Mason,  F. Matz,  S. A. Maurer,  
 P. F. McLaughlin,  M. F. S. J. Menger,  J.-M. Mewes,  S. A. Mewes,  
 P. Morgante,  Mohammad Mostafanejad,  J. W. Mullinax,  K. J. Oosterbaan,  
 G. Paran,  V. Parravicini,  Alexander C. Paul,  Suranjan K. Paul,  
 F. Pavosevic,  Zheng Pei,  S. Prager,  E. I. Proynov,  E. Ramos,  B. Rana,  
 A. E. Rask,  A. Rettig,  R. M. Richard,  F. Rob,  E. Rossomme,  T. Scheele,  
 M. Scheurer,  M. Schneider,  P. E. Schneider,  Tim K. Schramm,  N. Sergueev,  
 S. M. Sharada,  M. Sharma,  Hengyuan Shen,  W. Skomorowski,  D. W. Small,  
 C. J. Stein,  Alistair J. Sterling,  Yingli Su,  Yu-Chuan Su,  
 E. J. Sundstrom,  J. Talbot,  Zhen Tao,  J. Thirman,  Hung-Yi Tsai,  
 T. Tsuchimochi,  N. M. Tubman,  C. Utku,  S. P. Veccham,  O. Vydrov,  
 J. Wenzel,  Jonathan Wong,  J. Witte,  A. Yamada,  Chou-Hsun Yang,  Kun Yao,  
 S. Yeganeh,  S. R. Yost,  A. Zech,  F. Zeller,  Igor Ying Zhang,  
 Xing Zhang,  Yu Zhang,  D. Zuev,  A. Aspuru-Guzik,  A. T. Bell,  
 N. A. Besley,  K. B. Bravaya,  B. R. Brooks,  D. Casanova,  Jeng-Da Chai,  
 Hsing-Ta Chen,  S. Coriani,  C. J. Cramer,  A. E. DePrince, III,  
 R. A. DiStasio Jr.,  A. Dreuw,  B. D. Dunietz,  T. R. Furlani,  
 W. A. Goddard III,  S. Grimme,  S. Hammes-Schiffer,  T. Head-Gordon,  
 W. J. Hehre,  Chao-Ping Hsu,  T.-C. Jagau,  Yousung Jung,  A. Klamt,  
 Jing Kong,  D. S. Lambrecht,  Xiangyuan Li,  WanZhen Liang,  N. J. Mayhall,  
 C. W. McCurdy,  J. B. Neaton,  T. Neudecker,  C. Ochsenfeld,  
 J. A. Parkhill,  R. Peverati,  V. A. Rassolov,  Haisheng Ren,  Yihan Shao,  
 L. V. Slipchenko,  R. P. Steele,  J. E. Subotnik,  A. J. W. Thom,  
 A. Tkatchenko,  D. G. Truhlar,  T. Van Voorhis,  Fan Wang,  
 T. A. Wesolowski,  K. B. Whaley,  H. L. Woodcock III,  P. M. Zimmerman,  
 S. Faraji,  P. M. W. Gill,  M. Head-Gordon,  J. M. Herbert,  A. I. Krylov

 Contributors to earlier versions of Q-Chem not listed above: 
 R. D. Adamson,  B. Austin,  R. Baer,  J. Baker,  G. J. O. Beran,  
 K. Brandhorst,  S. T. Brown,  E. F. C. Byrd,  Arup K. Chakraborty,  
 G. K. L. Chan,  Chun-Min Chang,  Yunqing Chen,  C.-L. Cheng,  
 Siu Hung Chien,  D. M. Chipman,  D. L. Crittenden,  H. Dachsel,  
 R. J. Doerksen,  A. D. Dutoi,  R. G. Edgar,  J. Fosso-Tande,  
 L. Fusti-Molnar,  D. Ghosh,  A. Ghysels,  A. Golubeva-Zadorozhnaya,  
 J. Gonthier,  M. S. Gordon,  S. R. Gwaltney,  G. Hawkins,  J. E. Herr,  
 A. Heyden,  S. Hirata,  E. G. Hohenstein,  G. Kedziora,  F. J. Keil,  
 C. Kelley,  Jihan Kim,  R. A. King,  R. Z. Khaliullin,  P. P. Korambath,  
 W. Kurlancheek,  A. Laurent,  A. M. Lee,  M. S. Lee,  S. V. Levchenko,  
 Ching Yeh Lin,  D. Liotard,  E. Livshits,  R. C. Lochan,  I. Lotan,  
 L. A. Martinez-Martinez,  P. E. Maslen,  N. Nair,  D. P. O'Neill,  
 D. Neuhauser,  E. Neuscamman,  C. M. Oana,  R. Olivares-Amaya,  R. Olson,  
 T. M. Perrine,  B. Peters,  P. A. Pieniazek,  A. Prociuk,  Y. M. Rhee,  
 J. Ritchie,  M. A. Rohrdanz,  E. Rosta,  N. J. Russ,  H. F. Schaefer III,  
 M. W. Schmidt,  N. E. Schultz,  S. Sharma,  N. Shenvi,  C. D. Sherrill,  
 A. C. Simmonett,  A. Sodt,  T. Stein,  D. Stuck,  K. S. Thanthiriwatte,  
 V. Vanovschi,  L. Vogt,  Tao Wang,  A. Warshel,  M. A. Watson,  
 C. F. Williams,  Q. Wu,  X. Xu,  Jun Yang,  W. Zhang,  Yan Zhao

   Please cite Q-Chem as follows:
  "Software for the frontiers of quantum chemistry:
   An overview of developments in the Q-Chem 5 package"
   J. Chem. Phys. 155, 084801 (2021)
   https://doi.org/10.1063/5.0055522 (open access)

 Q-Chem 6.1.1 for Intel X86 EM64T Linux

 Parts of Q-Chem use Armadillo 9.900.5 (Nocturnal Misbehaviour).
 http://arma.sourceforge.net/

 Q-Chem begins on Wed Jun  5 00:41:58 2024  

 Host: 
0

     Scratch files written to /data/scratch/Me3SiH_NO2F_eda2_op1_B3LYP-D3BJ_tzvppd20240605004158//
 Jan1824 |scratch|qcdevops|jenkins|workspace|build_RNUM -1
 Processing $rem in /opt/qchem/6.1/config/preferences:
 Processing $rem in /home/ymao/.qchemrc:

 Q-Chem warning in module libgen/rem_setup.C, line 3361:

 Neither GIA nor STOLL is specified by user. Use STOLL as the default


 Checking the input file for inconsistencies... 	...done.

--------------------------------------------------------------
User input:
--------------------------------------------------------------
$molecule
0 1
--
0 1
C    -1.46647   -1.70584   0.68668
Si   -1.40427   -0.01483   -0.14062
C    -1.11563   1.33837    1.13833
C    -2.99139   0.31211    -1.10201
H    -0.26209   -0.00359   -1.11713
H    -1.59761   -2.51045   -0.05465
H    -0.53879   -1.90903   1.24404
H    -2.30709   -1.76421   1.39773
H    -1.03634   2.32910    0.66248
H    -0.18853   1.16328    1.70641
H    -1.94906   1.37764    1.85903
H    -2.95639   1.28802    -1.61231
H    -3.16164   -0.46150   -1.86781
H    -3.86454   0.31635    -0.42874
--
0 1
N    2.28974    0.12493    -0.31611
F    1.89036    -0.62694   0.84627
O    2.60975    -0.56869   -1.20661
O    2.21761    1.28365    -0.14096
$end

$rem
JOBTYPE  EDA
EDA2  1
METHOD  B3LYP
BASIS  DEF2-TZVPPD
SYMMETRY  FALSE
SYM_IGNORE  TRUE
MEM_TOTAL  8000
MEM_STATIC  2000
BASIS_LIN_DEP_THRESH  6
THRESH  14
SCF_CONVERGENCE  8
GEN_SCFMAN  TRUE
MAXSCF  200
FD_MAT_VEC_PROD  FALSE
XC_GRID  000099000590
NL_GRID  1
DFT_D  D3_BJ
SCF_GUESS  FRAGMO
FRZ_ORTHO_DECOMP  -1
EDA_CLS_DISP  TRUE
EDA_POL_A  TRUE
EDA_VCT_A  TRUE
$end
--------------------------------------------------------------
 Adding empirical dispersion correction 
 ----------------------------------------------------------------
 Doing -D3(BJ) with
 s6  =   1.00000
 s8  =   1.98890
 a1  =   0.39810
 a2  =   4.42110
 ----------------------------------------------------------------
 -D3 energy without 3body term =     -0.0240324652 hartrees
 ----------------------------------------------------------------
             Standard Nuclear Orientation (Angstroms)
    I     Atom           X                Y                Z
 ----------------------------------------------------------------
    1      C      -1.4664700000    -1.7058400000     0.6866800000
    2      Si     -1.4042700000    -0.0148300000    -0.1406200000
    3      C      -1.1156300000     1.3383700000     1.1383300000
    4      C      -2.9913900000     0.3121100000    -1.1020100000
    5      H      -0.2620900000    -0.0035900000    -1.1171300000
    6      H      -1.5976100000    -2.5104500000    -0.0546500000
    7      H      -0.5387900000    -1.9090300000     1.2440400000
    8      H      -2.3070900000    -1.7642100000     1.3977300000
    9      H      -1.0363400000     2.3291000000     0.6624800000
   10      H      -0.1885300000     1.1632800000     1.7064100000
   11      H      -1.9490600000     1.3776400000     1.8590300000
   12      H      -2.9563900000     1.2880200000    -1.6123100000
   13      H      -3.1616400000    -0.4615000000    -1.8678100000
   14      H      -3.8645400000     0.3163500000    -0.4287400000
   15      N       2.2897400000     0.1249300000    -0.3161100000
   16      F       1.8903600000    -0.6269400000     0.8462700000
   17      O       2.6097500000    -0.5686900000    -1.2066100000
   18      O       2.2176100000     1.2836500000    -0.1409600000
 ----------------------------------------------------------------
 Nuclear Repulsion Energy =         468.59446905 hartrees
 There are       37 alpha and       37 beta electrons
 Requested basis set is def2-TZVPPD
 There are 180 shells and 486 basis functions

 Total QAlloc Memory Limit   8000 MB
 Mega-Array Size      1956 MB
 MEM_STATIC part      2000 MB

 A cutoff of  1.0D-14 yielded  14533 shell pairs
 There are    105397 function pairs (    131755 Cartesian)
 Smallest overlap matrix eigenvalue = 2.11E-05

 Scale SEOQF with 1.000000e-01/1.000000e-01/1.000000e-01

 Standard Electronic Orientation quadrupole field applied
 Nucleus-field energy     =     0.0000000104 hartrees

 -----------------------------------------------------------------------
  General SCF calculation program by
  Eric Jon Sundstrom, Paul Horn, Yuezhi Mao, Dmitri Zuev, Alec White,
  David Stuck, Shaama M.S., Shane Yost, Joonho Lee, David Small,
  Daniel Levine, Susi Lehtola, Hugh Burton, Evgeny Epifanovsky,
  Bang C. Huynh
 -----------------------------------------------------------------------
================================================================
                 ALMO-EDA with the EDA2 driver                  
================================================================
 The second-generation ALMO-EDA (for DFT):                      
 P. R. Horn, Y. Mao and M. Head-Gordon, PCCP, 18, 23067 (2016)  
 Y. Mao et al. Annu. Rev. Phys. Chem. 72, 641 (2021)            
 Decomposition of the frozen energy:                            
 P. R. Horn, Y. Mao and M. Head-Gordon, JCP, 144, 114107 (2016) 
 FERF model for polarization:                                   
 P. R. Horn and M. Head-Gordon, JCP, 143, 114111 (2015)         
================================================================
 Using eda2 option set 1
 Option set summary: Frozen orbital wavefunction, initial wavefunction decomposition, and nDQ polarization.
--------------------------------
Printing EDA Options
--------------------------------
eda_child_super_basis      0
fragmo_guess_mode          0
child_mp                   1
child_mp_orders            232
cls_elec                   1
cls_disp                   1
scfmi_mode                 1
scfmi_occs                 0
scfmi_virts                0
frz_relax                  0
frz_relax_method           0
dc_pen_start               0
dc_pen_conv                0
dc_pen_increment           0
dc_pen_steps               0
dc_pen_thresh_factor       0
dc_pen_pre_newton_thresh   0
frz_ortho_decomp           0
frz_ortho_decomp_conv      6
plot_mo_ortho_frz          0
frgm_method                2
scfmi_freeze_ss            0
separate_rehyb             0
plot_diff_den              0
eda_nocv                   0
eda_vct_relax              1
disp_free_x                0
disp_free_c                0
eda_bsse                   0
eda_pct_a                  0
eda_covp                   0
eda_vct_a                  1
--------------------------------
 Attempting to make child job directory: /data/scratch/Me3SiH_NO2F_eda2_op1_B3LYP-D3BJ_tzvppd20240605004158//Frg1/
 Attempting to make child job directory: /data/scratch/Me3SiH_NO2F_eda2_op1_B3LYP-D3BJ_tzvppd20240605004158//Frg2/
 Creating input file /data/scratch/Me3SiH_NO2F_eda2_op1_B3LYP-D3BJ_tzvppd20240605004158/Frg1.input
 using default PutDataFrgm: nothing
 calling putenv with: QCSCRATCH=/data/scratch/Me3SiH_NO2F_eda2_op1_B3LYP-D3BJ_tzvppd20240605004158/ 
 Spawning Job For Fragment 0
 Done Job For Fragment 0
 calling putenv with: QCSCRATCH=/data/scratch 
 calling putenv with: QCTHREADS=16 
 Creating input file /data/scratch/Me3SiH_NO2F_eda2_op1_B3LYP-D3BJ_tzvppd20240605004158/Frg2.input
 using default PutDataFrgm: nothing
 calling putenv with: QCSCRATCH=/data/scratch/Me3SiH_NO2F_eda2_op1_B3LYP-D3BJ_tzvppd20240605004158/ 
 Spawning Job For Fragment 1
 Done Job For Fragment 1
 calling putenv with: QCSCRATCH=/data/scratch 
 calling putenv with: QCTHREADS=16 
Doing General SCFMI
 Exchange:     0.2000 Hartree-Fock + 0.0800 Slater + 0.7200 B88
 Correlation:  0.1900 VWN1RPA + 0.8100 LYP
 Using Euler-Maclaurin-Lebedev (99,590) quadrature formula
 Dispersion:   Grimme D3
performing fock build before subrot guess so that all methods have access
Printing subrot_rss_gen Method Specification:
Occupied Subspace Method is 0
Virtual Subspace Method is 0
Energy of the unrelaxed supersystem initial determinant -715.001932769265
write pseudocanon occs and virts to disk
write pseudocanon orbital energies to disk
 Exchange:     0.2000 Hartree-Fock + 0.0800 Slater + 0.7200 B88
 Correlation:  0.1900 VWN1RPA + 0.8100 LYP
 Using Euler-Maclaurin-Lebedev (99,590) quadrature formula
 Dispersion:   Grimme D3
 Hartree-Fock
Doing General SCFMI
 Exchange:     0.2000 Hartree-Fock + 0.0800 Slater + 0.7200 B88
 Correlation:  0.1900 VWN1RPA + 0.8100 LYP
 Using Euler-Maclaurin-Lebedev (99,590) quadrature formula
 Dispersion:   Grimme D3
performing fock build at end of subrot_r(subrot) constructor so that all methods have access
<S^2> of initial wavefunction before polarization iterations 0.0000000000
Beginning iterations for the determination of the polarized wavefunction
Energy prior to optimization (guess energy) = -715.001932769264
Begin Timing: Total SCF Calculation
begin iterations for algorithm: DIIS         
the SCF tolerance is set to 1.00e-08
    1    -715.0019327693      7.53e-05     00000 
    2    -715.0023376663      3.35e-05     00000 
    3    -715.0023522296      3.48e-05     00000 
    4    -715.0023712630      2.04e-05     00000 
    5    -715.0023794394      6.83e-06     00000 
    6    -715.0023802863      4.49e-06     00000 
    7    -715.0023806928      1.50e-06     00000 
    8    -715.0023807387      8.69e-07     00000 
    9    -715.0023807502      4.03e-07     00000 
   10    -715.0023807522      1.66e-07     00000 
   11    -715.0023807528      5.97e-08     00000 
   12    -715.0023807530      1.88e-08     00000 
   13    -715.0023807530      9.49e-09     00000 Convergence criterion met
write pseudocanon occs and virts to disk
write pseudocanon orbital energies to disk
Timing for Total SCF: 267.00s (wall), 3959.04s (cpu)
<S^2> of polarized wavefunction after polarization iterations 0.0000000000
Doing General SCFMI
 Exchange:     0.2000 Hartree-Fock + 0.0800 Slater + 0.7200 B88
 Correlation:  0.1900 VWN1RPA + 0.8100 LYP
 Using Euler-Maclaurin-Lebedev (99,590) quadrature formula
 Dispersion:   Grimme D3
performing fock build at end of subrot_r(subrot) constructor so that all methods have access
GDM subspace size: 20
    1       0.0007838571      1.33e-03     00000 Preconditoned Steepest Descent
    2       0.0070454191      3.99e-03     00000 LineSearch Step
    3       0.0000000004      9.29e-07     00000 BFGS Step
    4       0.0000000000      2.97e-07     00000 BFGS Step
    5       0.0000000002      6.91e-07     00000 LineSearch Step
    6       0.0000000000      8.33e-08     00000 BFGS Step
    7       0.0000000000      3.07e-09     00000 BFGS Step
GDM subspace size: 20
    1       0.0001384789      7.53e-04     00000 Preconditoned Steepest Descent
    2       0.0012462006      2.26e-03     00000 LineSearch Step
    3       0.0000000000      1.05e-07     00000 BFGS Step
    4       0.0000000000      1.91e-08     00000 BFGS Step
    5       0.0000000000      5.25e-08     00000 LineSearch Step
    6       0.0000000000      3.31e-09     00000 BFGS Step
=========Fragment P Connection POL Analysis Result=========
P Connection Polarization Energy (kJ/mol)  : -1.176181
P Connection On-Fragment Charge Shift (me-): +0.772498
First Principle Polarization Energy (kJ/mol)  : -1.176181
First Principle On-Fragment Charge Shift (me-): +0.772498
___________________________________________________________
=========Fragment-wise P Connection POL Analysis=========
[Fragment 1]
E_1 (kJ/mol): -0.922557, Q_1 (me-): +0.648808
[Fragment 2]
E_2 (kJ/mol): -0.253624, Q_2 (me-): +0.123690
_________________________________________________________
==============================================================
           Fragment P Connection POL COVP Analysis            
==============================================================
Using user defined COVP significance threshold 18446744073708552.000 (kJ/mol)
--------------------------------------------------------------
 D  A  dE (kJ/mol)  dE %    dQ (me-)  dQ %    idx(D)  idx(A)
______________________________________________________________
relaxing scfmi constraint to allow all rotations in the entire AO span
Doing General SCFMI
 Exchange:     0.2000 Hartree-Fock + 0.0800 Slater + 0.7200 B88
 Correlation:  0.1900 VWN1RPA + 0.8100 LYP
 Using Euler-Maclaurin-Lebedev (99,590) quadrature formula
 Dispersion:   Grimme D3
performing fock build at end of subrot_r(subrot) constructor so that all methods have access
<S^2> of polarized wavefunction before ct-allowed iterations 0.0000000000
Beginning iterations for the determination of the CT-Allowed wavefunction
Energy prior to optimization (guess energy) = -715.002380752977
Begin Timing: Total SCF Calculation
begin iterations for algorithm: DIIS         
the SCF tolerance is set to 1.00e-08
    1    -715.0023807530      9.45e-05     00000 
    2    -715.0032639046      3.12e-06     00000 
    3    -715.0032673897      2.71e-06     00000 
    4    -715.0032677667      1.66e-06     00000 
    5    -715.0032679552      6.17e-07     00000 
    6    -715.0032679865      2.02e-07     00000 
    7    -715.0032679897      6.65e-08     00000 
    8    -715.0032679901      2.36e-08     00000 
    9    -715.0032679901      7.18e-09     00000 Convergence criterion met
write pseudocanon occs and virts to disk
write pseudocanon orbital energies to disk
Timing for Total SCF: 161.00s (wall), 2453.20s (cpu)
<S^2> of ct_allowed wavefunction after ct-allowed iterations 0.0000000000
GDM subspace size: 20
    1       0.0014283970      8.29e-04     00000 Preconditoned Steepest Descent
    2       0.0128410978      2.48e-03     00000 LineSearch Step
    3       0.0000000005      5.12e-07     00000 BFGS Step
    4       0.0000000002      2.85e-07     00000 BFGS Step
    5       0.0000000004      4.34e-07     00000 LineSearch Step
    6       0.0000000000      1.09e-07     00000 BFGS Step
    7       0.0000000000      1.32e-08     00000 BFGS Step

==============Non-Perturbative CT Analysis Result===============
Non-Perturbative CT Energy (kJ/mol)   : -2.329441
Non-Perturbative Charge Transfer (me-): +1.428397
First Principle CT Energy (kJ/mol)    : -2.329441
First Principle Charge Transfer (me-) : +1.428397
_______________________________________________________________
========Fragment-wise Non-Perturbative CT Analysis=======
---Fragment-wise CT energies (row to col, kJ/mol)
			1			2
	1   -0.085680   -1.179712
	2   -1.045305   -0.018744
---Fragment-wise charge transfer (row to col, me-)
			1			2
	1   -0.026169    1.012926
	2    0.529311   -0.087671
_________________________________________________________
==============================================================
              Non-Perturbative CT COVP Analysis               
==============================================================
Using user defined COVP significance threshold 18446744073708552.000 (kJ/mol)
--------------------------------------------------------------
 D  A  dE (kJ/mol)  dE %    dQ (me-)  dQ %    idx(D)  idx(A)
______________________________________________________________
Done with restricted VCTA

================================
        Results of EDA2         
================================
Basic EDA Quantities
--------------------
Fragment Energies (Ha):
1 -409.9690476993
2 -305.0306887924
--------------------
  E_prp (kJ/mol) = 0.0000
  E_frz (kJ/mol) = -5.7664
  E_pol (kJ/mol) = -1.1762
  E_vct (kJ/mol) = -2.3295
  E_int (kJ/mol) = -9.2721
--------------------


Decomposition of frozen interaction energy
--------------------
  --------------------
  Classical Frozen Decomposition:
  --------------------
     E_cls_elec  (CLS ELEC)  (kJ/mol) = -11.2820
     E_mod_pauli (MOD PAULI) (kJ/mol) = 18.5424 (FRZ - CLS ELEC - CLS DISP)
     E_cls_disp  (CLS DISP)  (kJ/mol) = -13.0269
  --------------------
--------------------

Simplified EDA Summary (kJ/mol)
--------------------
 PREPARATION      0.0000
 FROZEN           -5.7664 (ELEC + PAULI + DISP)
[ELEC + PAULI = 7.2605, DISP = -13.0269]
 POLARIZATION    -1.1762
 CHARGE TRANSFER -2.3295
 TOTAL           -9.2721     (PRP + FRZ + POL + CT)
--------------------
 
 --------------------------------------------------------------
 
                    Orbital Energies (a.u.)
 --------------------------------------------------------------
 
 Alpha MOs
 -- Occupied --
-66.0930 -24.7393 -19.2453 -19.2450 -14.6682 -10.1535 -10.1520 -10.1519
 -5.2552  -3.6135  -3.6127  -3.6127  -1.3659  -1.2147  -1.1806  -0.7234
 -0.7148  -0.6802  -0.6794  -0.6371  -0.6348  -0.5976  -0.4792  -0.4740
 -0.4567  -0.4212  -0.4163  -0.4105  -0.4075  -0.3984  -0.3940  -0.3920
 -0.3842  -0.3707  -0.3164  -0.3082  -0.3077
 -- Virtual --
 -0.1074  -0.0465   0.0014   0.0184   0.0205   0.0255   0.0465   0.0519
  0.0553   0.0625   0.0648   0.0742   0.0756   0.0834   0.0875   0.0944
  0.0973   0.1002   0.1058   0.1098   0.1124   0.1164   0.1248   0.1316
  0.1340   0.1382   0.1475   0.1670   0.1745   0.1798   0.1834   0.1909
  0.1914   0.2034   0.2094   0.2140   0.2200   0.2261   0.2371   0.2423
  0.2450   0.2536   0.2545   0.2601   0.2624   0.2665   0.2718   0.2733
  0.2802   0.2834   0.2858   0.2943   0.2952   0.3063   0.3103   0.3132
  0.3160   0.3190   0.3257   0.3358   0.3374   0.3390   0.3618   0.3645
  0.3686   0.3735   0.3795   0.3836   0.3944   0.3975   0.4037   0.4082
  0.4101   0.4170   0.4249   0.4295   0.4385   0.4454   0.4490   0.4515
  0.4553   0.4578   0.4680   0.4700   0.4772   0.4790   0.4849   0.4851
  0.4925   0.5008   0.5019   0.5092   0.5221   0.5389   0.5426   0.5488
  0.5542   0.5599   0.5638   0.5696   0.5763   0.5848   0.5953   0.6025
  0.6177   0.6225   0.6309   0.6333   0.6429   0.6537   0.6597   0.6648
  0.6698   0.6774   0.6795   0.6886   0.6944   0.7021   0.7079   0.7124
  0.7146   0.7246   0.7274   0.7316   0.7400   0.7483   0.7525   0.7586
  0.7627   0.7702   0.7874   0.7998   0.8185   0.8291   0.8382   0.8508
  0.8635   0.8698   0.8919   0.8953   0.8980   0.9177   0.9222   0.9437
  0.9690   0.9816   0.9853   1.0004   1.0146   1.0249   1.0323   1.0505
  1.0556   1.0605   1.0665   1.0729   1.0859   1.1077   1.1193   1.1328
  1.1548   1.1593   1.1849   1.1904   1.2032   1.2108   1.2137   1.2154
  1.2220   1.2250   1.2522   1.2606   1.2667   1.2754   1.2855   1.2945
  1.3122   1.3263   1.3422   1.3690   1.3716   1.3873   1.3905   1.4016
  1.4072   1.4224   1.4322   1.4413   1.4844   1.4956   1.5088   1.5189
  1.5386   1.5463   1.5514   1.5708   1.5844   1.6114   1.6151   1.6233
  1.6322   1.6462   1.6517   1.6699   1.6833   1.7129   1.7208   1.7234
  1.7384   1.7405   1.7589   1.7614   1.7717   1.7815   1.7930   1.8133
  1.8453   1.8772   1.8955   1.9041   1.9132   1.9233   1.9355   1.9910
  2.0073   2.0562   2.0689   2.1174   2.2108   2.2280   2.2338   2.2556
  2.2882   2.3042   2.3126   2.3214   2.3371   2.3773   2.4173   2.4807
  2.4988   2.5191   2.5561   2.6552   2.6686   2.6877   2.7596   2.7752
  2.7863   2.8001   2.8107   2.8397   2.8473   2.8603   2.8701   2.8760
  2.8829   2.8924   2.9086   2.9122   2.9183   2.9453   2.9580   2.9647
  2.9821   3.0169   3.0279   3.0458   3.0762   3.0884   3.0957   3.0989
  3.1126   3.1320   3.1409   3.1494   3.1616   3.1803   3.2111   3.2169
  3.2310   3.2396   3.2474   3.2936   3.3415   3.3600   3.3679   3.4028
  3.4128   3.4274   3.4324   3.4430   3.4694   3.4782   3.4869   3.5022
  3.5178   3.5312   3.5468   3.5525   3.5611   3.5725   3.5772   3.6068
  3.6220   3.6407   3.6448   3.6847   3.6894   3.7199   3.7263   3.7284
  3.7512   3.7568   3.7885   3.8253   3.8518   3.9045   3.9184   3.9372
  3.9496   3.9819   3.9931   3.9950   4.0095   4.0192   4.0302   4.0478
  4.0507   4.0679   4.0730   4.1205   4.1494   4.1719   4.1794   4.1916
  4.2044   4.2053   4.2122   4.2231   4.2712   4.2950   4.2976   4.3037
  4.3126   4.3177   4.3269   4.3640   4.3713   4.3904   4.4038   4.4301
  4.5112   4.5241   4.5682   4.5693   4.5890   4.6050   4.6067   4.6158
  4.6174   4.6414   4.6847   4.7114   4.7176   4.7306   4.8142   4.8646
  4.8788   4.9421   5.0248   5.0320   5.0450   5.0488   5.0543   5.0753
  5.0783   5.0976   5.1048   5.1188   5.1245   5.1432   5.1532   5.1658
  5.1771   5.1852   5.1939   5.2494   5.2671   5.2726   5.3338   5.3472
  5.3606   5.3914   5.3944   5.3959   5.4238   5.4634   5.4734   5.4843
  5.4887   5.5119   5.5981   5.6393   5.6628   5.6730   5.6820   5.6994
  5.7074   5.7171   6.1596   6.2989   6.3583   6.3863   6.3978   6.4585
  6.5160   6.5961   6.7636   6.7774   6.8254   6.8279   6.8471   6.8917
  6.9065   6.9702   6.9785   7.0300   7.0802   7.0972   7.2037   7.2426
  7.2658   7.7109   7.7204   7.7541   8.5052   8.5873   8.6913   8.8181
  9.3868  12.2673  23.5279  23.5425  23.5479  32.5785  44.3350  44.3485
 57.5150
 --------------------------------------------------------------
 
          Ground-State Mulliken Net Atomic Charges

     Atom                 Charge (a.u.)
  ----------------------------------------
      1 C                    -0.410373
      2 Si                    0.418117
      3 C                    -0.410247
      4 C                    -0.385705
      5 H                    -0.216530
      6 H                     0.116066
      7 H                     0.109904
      8 H                     0.129786
      9 H                     0.108443
     10 H                     0.129917
     11 H                     0.145274
     12 H                     0.088778
     13 H                     0.091059
     14 H                     0.117702
     15 N                     1.059969
     16 F                    -0.262987
     17 O                    -0.414667
     18 O                    -0.414506
  ----------------------------------------
  Sum of atomic charges =     0.000000

 -----------------------------------------------------------------
                    Cartesian Multipole Moments
 -----------------------------------------------------------------
    Charge (ESU x 10^10)
                 0.0000
    Dipole Moment (Debye)
         X      -0.4680      Y       0.1367      Z       0.1854
       Tot       0.5216
    Quadrupole Moments (Debye-Ang)
        XX     -54.4405     XY       0.4706     YY     -58.3386
        XZ       0.0431     YZ      -0.1930     ZZ     -58.1100
    Octopole Moments (Debye-Ang^2)
       XXX      47.5157    XXY      -0.0423    XYY       9.3760
       YYY      -0.9673    XXZ       7.4028    XYZ      -1.4569
       YYZ      -2.2747    XZZ       9.7824    YZZ      -1.3761
       ZZZ       5.0219
    Hexadecapole Moments (Debye-Ang^3)
      XXXX   -1430.6389   XXXY      -1.5160   XXYY    -319.7704
      XYYY     -16.0882   YYYY    -408.4258   XXXZ      -4.4097
      XXYZ       1.6565   XYYZ      10.0858   YYYZ       0.9243
      XXZZ    -302.3221   XYZZ      -0.4051   YYZZ    -121.9982
      XZZZ       9.7942   YZZZ      -0.5487   ZZZZ    -321.1511
 -----------------------------------------------------------------
 Total job time:  1343.83s(wall), 11500.62s(cpu) 
 Wed Jun  5 01:04:22 2024

        *************************************************************
        *                                                           *
        *  Thank you very much for using Q-Chem.  Have a nice day.  *
        *                                                           *
        *************************************************************


