
Running Job 1 of 1 Me3SiH_ICF3_eda2_op1_B3LYP-D3BJ_tzvppd.in
qchem Me3SiH_ICF3_eda2_op1_B3LYP-D3BJ_tzvppd.in_1457088.0 /data/scratch/Me3SiH_ICF3_eda2_op1_B3LYP-D3BJ_tzvppd20240605004158/ 1
/opt/qchem/6.1/exe/qcprog.exe_s Me3SiH_ICF3_eda2_op1_B3LYP-D3BJ_tzvppd.in_1457088.0 /data/scratch/Me3SiH_ICF3_eda2_op1_B3LYP-D3BJ_tzvppd20240605004158/
                  Welcome to Q-Chem
     A Quantum Leap Into The Future Of Chemistry


 Q-Chem 6.1, Q-Chem, Inc., Pleasanton, CA (2023)

 E. Epifanovsky,  A. T. B. Gilbert,  Xintian Feng,  Joonho Lee,  Yuezhi Mao,  
 N. Mardirossian,  P. Pokhilko,  A. White,  M. Wormit,  M. P. Coons,  
 A. L. Dempwolff,  Zhengting Gan,  D. Hait,  P. R. Horn,  L. D. Jacobson,  
 I. Kaliman,  J. Kussmann,  A. W. Lange,  Ka Un Lao,  D. S. Levine,  Jie Liu,  
 S. C. McKenzie,  A. F. Morrison,  K. D. Nanda,  F. Plasser,  D. R. Rehn,  
 M. L. Vidal,  Zhi-Qiang You,  Ying Zhu,  B. Alam,  B. Albrecht,  
 A. Aldossary,  E. Alguire,  J. H. Andersen,  V. Athavale,  D. Barton,  
 K. Begam,  A. Behn,  N. Bellonzi,  Y. A. Bernard,  E. J. Berquist,  
 H. Burton,  A. Carreras,  K. Carter-Fenk,  Mathew Chow,  Romit Chakraborty,  
 Chandrima Chakravarty,  Junhan Chen,  A. D. Chien,  K. D. Closser,  
 V. Cofer-Shabica,  L. Cunha,  S. Dasgupta,  Jia Deng,  M. de Wergifosse,  
 M. Diedenhofen,  Hainam Do,  S. Ehlert,  Po-Tung Fang,  S. Fatehi,  
 Qingguo Feng,  T. Friedhoff,  Thomas Froitzheim,  B. Ganoe,  J. Gayvert,  
 Qinghui Ge,  G. Gidofalvi,  M. Gimferrer,  M. Goldey,  Montgomery Gray,  
 J. Gomes,  C. Gonzalez-Espinoza,  S. Gulania,  A. Gunina,  J. A. Gyamfi,  
 M. W. D. Hanson-Heine,  P. H. P. Harbach,  A. W. Hauser,  M. F. Herbst,  
 M. Hernandez Vera,  M. Hodecker,  Z. C. Holden,  S. Houck,  Xunkun Huang,  
 Kerwin Hui,  B. C. Huynh,  K. Ikeda,  M. Ivanov,  Hyunjun Ji,  Zuxin Jin,  
 Hanjie Jiang,  Subrata Jana,  B. Kaduk,  S. Kaehler,  R. Kang,  
 K. Khistyaev,  Jaehoon Kim,  Yongbin Kim,  P. Klunzinger,  Z. Koczor-Benda,  
 Joong Hoon Koh,  D. Kosenkov,  Saikiran Kotaru,  L. Koulias,  T. Kowalczyk,  
 C. M. Krauter,  K. Kue,  A. Kunitsa,  T. Kus,  A. Landau,  K. V. Lawler,  
 D. Lefrancois,  S. Lehtola,  Rain Li,  Shaozhi Li,  Yi-Pei Li,  
 Jiashu Liang,  M. Liebenthal,  Hung-Hsuan Lin,  You-Sheng Lin,  Fenglai Liu,  
 Kuan-Yu Liu,  Xiao Liu,  M. Loipersberger,  A. Luenser,  C. Malbon,  
 A. Manjanath,  P. Manohar,  E. Mansoor,  S. F. Manzer,  Shan-Ping Mao,  
 A. V. Marenich,  T. Markovich,  S. Mason,  F. Matz,  S. A. Maurer,  
 P. F. McLaughlin,  M. F. S. J. Menger,  J.-M. Mewes,  S. A. Mewes,  
 P. Morgante,  Mohammad Mostafanejad,  J. W. Mullinax,  K. J. Oosterbaan,  
 G. Paran,  V. Parravicini,  Alexander C. Paul,  Suranjan K. Paul,  
 F. Pavosevic,  Zheng Pei,  S. Prager,  E. I. Proynov,  E. Ramos,  B. Rana,  
 A. E. Rask,  A. Rettig,  R. M. Richard,  F. Rob,  E. Rossomme,  T. Scheele,  
 M. Scheurer,  M. Schneider,  P. E. Schneider,  Tim K. Schramm,  N. Sergueev,  
 S. M. Sharada,  M. Sharma,  Hengyuan Shen,  W. Skomorowski,  D. W. Small,  
 C. J. Stein,  Alistair J. Sterling,  Yingli Su,  Yu-Chuan Su,  
 E. J. Sundstrom,  J. Talbot,  Zhen Tao,  J. Thirman,  Hung-Yi Tsai,  
 T. Tsuchimochi,  N. M. Tubman,  C. Utku,  S. P. Veccham,  O. Vydrov,  
 J. Wenzel,  Jonathan Wong,  J. Witte,  A. Yamada,  Chou-Hsun Yang,  Kun Yao,  
 S. Yeganeh,  S. R. Yost,  A. Zech,  F. Zeller,  Igor Ying Zhang,  
 Xing Zhang,  Yu Zhang,  D. Zuev,  A. Aspuru-Guzik,  A. T. Bell,  
 N. A. Besley,  K. B. Bravaya,  B. R. Brooks,  D. Casanova,  Jeng-Da Chai,  
 Hsing-Ta Chen,  S. Coriani,  C. J. Cramer,  A. E. DePrince, III,  
 R. A. DiStasio Jr.,  A. Dreuw,  B. D. Dunietz,  T. R. Furlani,  
 W. A. Goddard III,  S. Grimme,  S. Hammes-Schiffer,  T. Head-Gordon,  
 W. J. Hehre,  Chao-Ping Hsu,  T.-C. Jagau,  Yousung Jung,  A. Klamt,  
 Jing Kong,  D. S. Lambrecht,  Xiangyuan Li,  WanZhen Liang,  N. J. Mayhall,  
 C. W. McCurdy,  J. B. Neaton,  T. Neudecker,  C. Ochsenfeld,  
 J. A. Parkhill,  R. Peverati,  V. A. Rassolov,  Haisheng Ren,  Yihan Shao,  
 L. V. Slipchenko,  R. P. Steele,  J. E. Subotnik,  A. J. W. Thom,  
 A. Tkatchenko,  D. G. Truhlar,  T. Van Voorhis,  Fan Wang,  
 T. A. Wesolowski,  K. B. Whaley,  H. L. Woodcock III,  P. M. Zimmerman,  
 S. Faraji,  P. M. W. Gill,  M. Head-Gordon,  J. M. Herbert,  A. I. Krylov

 Contributors to earlier versions of Q-Chem not listed above: 
 R. D. Adamson,  B. Austin,  R. Baer,  J. Baker,  G. J. O. Beran,  
 K. Brandhorst,  S. T. Brown,  E. F. C. Byrd,  Arup K. Chakraborty,  
 G. K. L. Chan,  Chun-Min Chang,  Yunqing Chen,  C.-L. Cheng,  
 Siu Hung Chien,  D. M. Chipman,  D. L. Crittenden,  H. Dachsel,  
 R. J. Doerksen,  A. D. Dutoi,  R. G. Edgar,  J. Fosso-Tande,  
 L. Fusti-Molnar,  D. Ghosh,  A. Ghysels,  A. Golubeva-Zadorozhnaya,  
 J. Gonthier,  M. S. Gordon,  S. R. Gwaltney,  G. Hawkins,  J. E. Herr,  
 A. Heyden,  S. Hirata,  E. G. Hohenstein,  G. Kedziora,  F. J. Keil,  
 C. Kelley,  Jihan Kim,  R. A. King,  R. Z. Khaliullin,  P. P. Korambath,  
 W. Kurlancheek,  A. Laurent,  A. M. Lee,  M. S. Lee,  S. V. Levchenko,  
 Ching Yeh Lin,  D. Liotard,  E. Livshits,  R. C. Lochan,  I. Lotan,  
 L. A. Martinez-Martinez,  P. E. Maslen,  N. Nair,  D. P. O'Neill,  
 D. Neuhauser,  E. Neuscamman,  C. M. Oana,  R. Olivares-Amaya,  R. Olson,  
 T. M. Perrine,  B. Peters,  P. A. Pieniazek,  A. Prociuk,  Y. M. Rhee,  
 J. Ritchie,  M. A. Rohrdanz,  E. Rosta,  N. J. Russ,  H. F. Schaefer III,  
 M. W. Schmidt,  N. E. Schultz,  S. Sharma,  N. Shenvi,  C. D. Sherrill,  
 A. C. Simmonett,  A. Sodt,  T. Stein,  D. Stuck,  K. S. Thanthiriwatte,  
 V. Vanovschi,  L. Vogt,  Tao Wang,  A. Warshel,  M. A. Watson,  
 C. F. Williams,  Q. Wu,  X. Xu,  Jun Yang,  W. Zhang,  Yan Zhao

   Please cite Q-Chem as follows:
  "Software for the frontiers of quantum chemistry:
   An overview of developments in the Q-Chem 5 package"
   J. Chem. Phys. 155, 084801 (2021)
   https://doi.org/10.1063/5.0055522 (open access)

 Q-Chem 6.1.1 for Intel X86 EM64T Linux

 Parts of Q-Chem use Armadillo 9.900.5 (Nocturnal Misbehaviour).
 http://arma.sourceforge.net/

 Q-Chem begins on Wed Jun  5 00:41:58 2024  

 Host: 
0

     Scratch files written to /data/scratch/Me3SiH_ICF3_eda2_op1_B3LYP-D3BJ_tzvppd20240605004158//
 Jan1824 |scratch|qcdevops|jenkins|workspace|build_RNUM -1
 Processing $rem in /opt/qchem/6.1/config/preferences:
 Processing $rem in /home/ymao/.qchemrc:

 Q-Chem warning in module libgen/rem_setup.C, line 3361:

 Neither GIA nor STOLL is specified by user. Use STOLL as the default


 Checking the input file for inconsistencies... 	...done.
 Reading auxiliary files from /opt/qchem/6.1/qcaux (QCAUX)

--------------------------------------------------------------
User input:
--------------------------------------------------------------
$molecule
0 1
--
0 1
C    2.90994    -1.54558   1.02871
Si   3.13158    -0.00044   -0.02503
C    4.81080    -0.00362   -0.87686
C    2.91005    1.55211    1.01780
H    2.07092    -0.00379   -1.09596
H    2.99665    -2.46128   0.42197
H    3.67708    -1.59279   1.81920
H    1.92318    -1.55921   1.51878
H    4.93587    -0.89603   -1.51060
H    4.93610    0.88434    -1.51676
H    5.62582    -0.00116   -0.13437
H    1.92314    1.56917    1.50750
H    3.67698    1.60517    1.80810
H    2.99674    2.46340    0.40444
--
0 1
I    -0.74770   -0.00263   -0.36203
C    -2.81165   -0.00215   0.20722
F    -3.10282   1.08097    0.92845
F    -3.59784   -0.00844   -0.86946
F    -3.10041   -1.07859   0.93930
$end

$rem
JOBTYPE  EDA
EDA2  1
METHOD  B3LYP
BASIS  DEF2-TZVPPD
SYMMETRY  FALSE
SYM_IGNORE  TRUE
MEM_TOTAL  8000
MEM_STATIC  2000
BASIS_LIN_DEP_THRESH  6
THRESH  14
SCF_CONVERGENCE  8
GEN_SCFMAN  TRUE
MAXSCF  200
FD_MAT_VEC_PROD  FALSE
XC_GRID  000099000590
NL_GRID  1
DFT_D  D3_BJ
SCF_GUESS  FRAGMO
FRZ_ORTHO_DECOMP  -1
EDA_CLS_DISP  TRUE
EDA_POL_A  TRUE
EDA_VCT_A  TRUE
$end
--------------------------------------------------------------
 Adding empirical dispersion correction 
 ----------------------------------------------------------------
 Doing -D3(BJ) with
 s6  =   1.00000
 s8  =   1.98890
 a1  =   0.39810
 a2  =   4.42110
 ----------------------------------------------------------------
 -D3 energy without 3body term =     -0.0290649867 hartrees
 ----------------------------------------------------------------
             Standard Nuclear Orientation (Angstroms)
    I     Atom           X                Y                Z
 ----------------------------------------------------------------
    1      C       2.9099400000    -1.5455800000     1.0287100000
    2      Si      3.1315800000    -0.0004400000    -0.0250300000
    3      C       4.8108000000    -0.0036200000    -0.8768600000
    4      C       2.9100500000     1.5521100000     1.0178000000
    5      H       2.0709200000    -0.0037900000    -1.0959600000
    6      H       2.9966500000    -2.4612800000     0.4219700000
    7      H       3.6770800000    -1.5927900000     1.8192000000
    8      H       1.9231800000    -1.5592100000     1.5187800000
    9      H       4.9358700000    -0.8960300000    -1.5106000000
   10      H       4.9361000000     0.8843400000    -1.5167600000
   11      H       5.6258200000    -0.0011600000    -0.1343700000
   12      H       1.9231400000     1.5691700000     1.5075000000
   13      H       3.6769800000     1.6051700000     1.8081000000
   14      H       2.9967400000     2.4634000000     0.4044400000
   15      I      -0.7477000000    -0.0026300000    -0.3620300000
   16      C      -2.8116500000    -0.0021500000     0.2072200000
   17      F      -3.1028200000     1.0809700000     0.9284500000
   18      F      -3.5978400000    -0.0084400000    -0.8694600000
   19      F      -3.1004100000    -1.0785900000     0.9393000000
 ----------------------------------------------------------------
 Nuclear Repulsion Energy =         696.65277097 hartrees
 There are       50 alpha and       50 beta electrons
 Requested basis set is def2-TZVPPD
 There are 199 shells and 545 basis functions

 Total QAlloc Memory Limit   8000 MB
 Mega-Array Size      1956 MB
 MEM_STATIC part      2000 MB

 A cutoff of  1.0D-14 yielded  15929 shell pairs
 There are    117387 function pairs (    147373 Cartesian)
 Requested basis set is def2-TZVPPD
 Compound shells will be simplified
 There are 199 shells and 545 basis functions
 A cutoff of  1.0D-14 yielded  15929 shell pairs
 There are    117387 function pairs (    147373 Cartesian)
 Smallest overlap matrix eigenvalue = 1.99E-05

 Scale SEOQF with 1.000000e-02/1.000000e-01/1.000000e-01

 Standard Electronic Orientation quadrupole field applied
 Nucleus-field energy     =     0.0000000019 hartrees

 -----------------------------------------------------------------------
  General SCF calculation program by
  Eric Jon Sundstrom, Paul Horn, Yuezhi Mao, Dmitri Zuev, Alec White,
  David Stuck, Shaama M.S., Shane Yost, Joonho Lee, David Small,
  Daniel Levine, Susi Lehtola, Hugh Burton, Evgeny Epifanovsky,
  Bang C. Huynh
 -----------------------------------------------------------------------
================================================================
                 ALMO-EDA with the EDA2 driver                  
================================================================
 The second-generation ALMO-EDA (for DFT):                      
 P. R. Horn, Y. Mao and M. Head-Gordon, PCCP, 18, 23067 (2016)  
 Y. Mao et al. Annu. Rev. Phys. Chem. 72, 641 (2021)            
 Decomposition of the frozen energy:                            
 P. R. Horn, Y. Mao and M. Head-Gordon, JCP, 144, 114107 (2016) 
 FERF model for polarization:                                   
 P. R. Horn and M. Head-Gordon, JCP, 143, 114111 (2015)         
================================================================
 Using eda2 option set 1
 Option set summary: Frozen orbital wavefunction, initial wavefunction decomposition, and nDQ polarization.
--------------------------------
Printing EDA Options
--------------------------------
eda_child_super_basis      0
fragmo_guess_mode          0
child_mp                   1
child_mp_orders            232
cls_elec                   1
cls_disp                   1
scfmi_mode                 1
scfmi_occs                 0
scfmi_virts                0
frz_relax                  0
frz_relax_method           0
dc_pen_start               0
dc_pen_conv                0
dc_pen_increment           0
dc_pen_steps               0
dc_pen_thresh_factor       0
dc_pen_pre_newton_thresh   0
frz_ortho_decomp           0
frz_ortho_decomp_conv      6
plot_mo_ortho_frz          0
frgm_method                2
scfmi_freeze_ss            0
separate_rehyb             0
plot_diff_den              0
eda_nocv                   0
eda_vct_relax              1
disp_free_x                0
disp_free_c                0
eda_bsse                   0
eda_pct_a                  0
eda_covp                   0
eda_vct_a                  1
--------------------------------
 Attempting to make child job directory: /data/scratch/Me3SiH_ICF3_eda2_op1_B3LYP-D3BJ_tzvppd20240605004158//Frg1/
 Attempting to make child job directory: /data/scratch/Me3SiH_ICF3_eda2_op1_B3LYP-D3BJ_tzvppd20240605004158//Frg2/
 Creating input file /data/scratch/Me3SiH_ICF3_eda2_op1_B3LYP-D3BJ_tzvppd20240605004158/Frg1.input
 using default PutDataFrgm: nothing
 calling putenv with: QCSCRATCH=/data/scratch/Me3SiH_ICF3_eda2_op1_B3LYP-D3BJ_tzvppd20240605004158/ 
 Spawning Job For Fragment 0
 Done Job For Fragment 0
 calling putenv with: QCSCRATCH=/data/scratch 
 calling putenv with: QCTHREADS=16 
 Creating input file /data/scratch/Me3SiH_ICF3_eda2_op1_B3LYP-D3BJ_tzvppd20240605004158/Frg2.input
 using default PutDataFrgm: nothing
 calling putenv with: QCSCRATCH=/data/scratch/Me3SiH_ICF3_eda2_op1_B3LYP-D3BJ_tzvppd20240605004158/ 
 Spawning Job For Fragment 1
 Done Job For Fragment 1
 calling putenv with: QCSCRATCH=/data/scratch 
 calling putenv with: QCTHREADS=16 
Doing General SCFMI
 Exchange:     0.2000 Hartree-Fock + 0.0800 Slater + 0.7200 B88
 Correlation:  0.1900 VWN1RPA + 0.8100 LYP
 Using Euler-Maclaurin-Lebedev (99,590) quadrature formula
 Dispersion:   Grimme D3
performing fock build before subrot guess so that all methods have access
Printing subrot_rss_gen Method Specification:
Occupied Subspace Method is 0
Virtual Subspace Method is 0
Energy of the unrelaxed supersystem initial determinant -1045.560142571224
write pseudocanon occs and virts to disk
write pseudocanon orbital energies to disk
 Exchange:     0.2000 Hartree-Fock + 0.0800 Slater + 0.7200 B88
 Correlation:  0.1900 VWN1RPA + 0.8100 LYP
 Using Euler-Maclaurin-Lebedev (99,590) quadrature formula
 Dispersion:   Grimme D3
 Hartree-Fock
Doing General SCFMI
 Exchange:     0.2000 Hartree-Fock + 0.0800 Slater + 0.7200 B88
 Correlation:  0.1900 VWN1RPA + 0.8100 LYP
 Using Euler-Maclaurin-Lebedev (99,590) quadrature formula
 Dispersion:   Grimme D3
performing fock build at end of subrot_r(subrot) constructor so that all methods have access
<S^2> of initial wavefunction before polarization iterations 0.0000000000
Beginning iterations for the determination of the polarized wavefunction
Energy prior to optimization (guess energy) = -1045.560142571224
Begin Timing: Total SCF Calculation
begin iterations for algorithm: DIIS         
the SCF tolerance is set to 1.00e-08
    1   -1045.5601425712      8.57e-05     00000 
    2   -1045.5610163373      3.99e-05     00000 
    3   -1045.5610772342      2.49e-05     00000 
    4   -1045.5610984889      8.54e-06     00000 
    5   -1045.5611008058      4.55e-06     00000 
    6   -1045.5611016043      2.76e-06     00000 
    7   -1045.5611019519      1.40e-06     00000 
    8   -1045.5611020121      7.80e-07     00000 
    9   -1045.5611020239      4.20e-07     00000 
   10   -1045.5611020296      2.31e-07     00000 
   11   -1045.5611020325      1.11e-07     00000 
   12   -1045.5611020333      3.72e-08     00000 
   13   -1045.5611020334      1.50e-08     00000 
   14   -1045.5611020335      9.32e-09     00000 Convergence criterion met
write pseudocanon occs and virts to disk
write pseudocanon orbital energies to disk
Timing for Total SCF: 375.00s (wall), 4898.50s (cpu)
<S^2> of polarized wavefunction after polarization iterations 0.0000000000
Doing General SCFMI
 Exchange:     0.2000 Hartree-Fock + 0.0800 Slater + 0.7200 B88
 Correlation:  0.1900 VWN1RPA + 0.8100 LYP
 Using Euler-Maclaurin-Lebedev (99,590) quadrature formula
 Dispersion:   Grimme D3
performing fock build at end of subrot_r(subrot) constructor so that all methods have access
GDM subspace size: 20
    1       0.0015820398      1.89e-03     00000 Preconditoned Steepest Descent
    2       0.0142012172      5.66e-03     00000 LineSearch Step
    3       0.0000000026      2.43e-06     00000 BFGS Step
    4       0.0000000003      8.58e-07     00000 BFGS Step
    5       0.0000000016      1.90e-06     00000 LineSearch Step
    6       0.0000000000      2.59e-07     00000 BFGS Step
    7       0.0000000000      1.18e-08     00000 BFGS Step
GDM subspace size: 20
    1       0.0004503566      8.28e-04     00000 Preconditoned Steepest Descent
    2       0.0040515016      2.48e-03     00000 LineSearch Step
    3       0.0000000000      2.41e-07     00000 BFGS Step
    4       0.0000000000      7.02e-08     00000 BFGS Step
    5       0.0000000000      1.70e-07     00000 LineSearch Step
    6       0.0000000000      1.83e-08     00000 BFGS Step
    7       0.0000000000      5.54e-10     00000 BFGS Step
=========Fragment P Connection POL Analysis Result=========
P Connection Polarization Energy (kJ/mol)  : -2.519068
P Connection On-Fragment Charge Shift (me-): +1.810993
First Principle Polarization Energy (kJ/mol)  : -2.519068
First Principle On-Fragment Charge Shift (me-): +1.810993
___________________________________________________________
=========Fragment-wise P Connection POL Analysis=========
[Fragment 1]
E_1 (kJ/mol): -2.077265, Q_1 (me-): +1.424441
[Fragment 2]
E_2 (kJ/mol): -0.441802, Q_2 (me-): +0.386551
_________________________________________________________
==============================================================
           Fragment P Connection POL COVP Analysis            
==============================================================
Using user defined COVP significance threshold 18446744073708552.000 (kJ/mol)
--------------------------------------------------------------
 D  A  dE (kJ/mol)  dE %    dQ (me-)  dQ %    idx(D)  idx(A)
______________________________________________________________
relaxing scfmi constraint to allow all rotations in the entire AO span
Doing General SCFMI
 Exchange:     0.2000 Hartree-Fock + 0.0800 Slater + 0.7200 B88
 Correlation:  0.1900 VWN1RPA + 0.8100 LYP
 Using Euler-Maclaurin-Lebedev (99,590) quadrature formula
 Dispersion:   Grimme D3
performing fock build at end of subrot_r(subrot) constructor so that all methods have access
<S^2> of polarized wavefunction before ct-allowed iterations 0.0000000000
Beginning iterations for the determination of the CT-Allowed wavefunction
Energy prior to optimization (guess energy) = -1045.561102033456
Begin Timing: Total SCF Calculation
begin iterations for algorithm: DIIS         
the SCF tolerance is set to 1.00e-08
    1   -1045.5611020335      1.67e-04     00000 
    2   -1045.5638956009      8.12e-06     00000 
    3   -1045.5639157912      5.83e-06     00000 
    4   -1045.5639203992      2.56e-06     00000 
    5   -1045.5639210859      1.07e-06     00000 
    6   -1045.5639212012      2.26e-07     00000 
    7   -1045.5639212068      6.86e-08     00000 
    8   -1045.5639212075      1.36e-08     00000 
    9   -1045.5639212075      5.75e-09     00000 Convergence criterion met
write pseudocanon occs and virts to disk
write pseudocanon orbital energies to disk
Timing for Total SCF: 166.00s (wall), 2560.71s (cpu)
<S^2> of ct_allowed wavefunction after ct-allowed iterations 0.0000000000
GDM subspace size: 20
    1       0.0072559615      1.53e-03     00000 Preconditoned Steepest Descent
    2       0.0645970455      4.52e-03     00000 LineSearch Step
    3       0.0000001816      7.66e-06     00000 BFGS Step
    4       0.0000000334      3.29e-06     00000 BFGS Step
    5       0.0000001265      6.39e-06     00000 LineSearch Step
    6       0.0000000039      1.13e-06     00000 BFGS Step
    7       0.0000000000      7.88e-08     00000 BFGS Step

==============Non-Perturbative CT Analysis Result===============
Non-Perturbative CT Energy (kJ/mol)   : -7.401740
Non-Perturbative Charge Transfer (me-): +7.255961
First Principle CT Energy (kJ/mol)    : -7.401740
First Principle Charge Transfer (me-) : +7.255961
_______________________________________________________________
========Fragment-wise Non-Perturbative CT Analysis=======
---Fragment-wise CT energies (row to col, kJ/mol)
			1			2
	1   -0.073342   -5.357792
	2   -1.951300   -0.019307
---Fragment-wise charge transfer (row to col, me-)
			1			2
	1   -0.145326    6.223508
	2    1.444931   -0.267152
_________________________________________________________
==============================================================
              Non-Perturbative CT COVP Analysis               
==============================================================
Using user defined COVP significance threshold 18446744073708552.000 (kJ/mol)
--------------------------------------------------------------
 D  A  dE (kJ/mol)  dE %    dQ (me-)  dQ %    idx(D)  idx(A)
______________________________________________________________
Done with restricted VCTA

================================
        Results of EDA2         
================================
Basic EDA Quantities
--------------------
Fragment Energies (Ha):
1 -409.9689709316
2 -635.5891343396
--------------------
  E_prp (kJ/mol) = 0.0000
  E_frz (kJ/mol) = -5.3490
  E_pol (kJ/mol) = -2.5191
  E_vct (kJ/mol) = -7.4018
  E_int (kJ/mol) = -15.2699
--------------------


Decomposition of frozen interaction energy
--------------------
  --------------------
  Classical Frozen Decomposition:
  --------------------
     E_cls_elec  (CLS ELEC)  (kJ/mol) = -13.9860
     E_mod_pauli (MOD PAULI) (kJ/mol) = 25.7787 (FRZ - CLS ELEC - CLS DISP)
     E_cls_disp  (CLS DISP)  (kJ/mol) = -17.1417
  --------------------
--------------------

Simplified EDA Summary (kJ/mol)
--------------------
 PREPARATION      0.0000
 FROZEN           -5.3490 (ELEC + PAULI + DISP)
[ELEC + PAULI = 11.7927, DISP = -17.1417]
 POLARIZATION    -2.5191
 CHARGE TRANSFER -7.4018
 TOTAL           -15.2699     (PRP + FRZ + POL + CT)
--------------------
 
 --------------------------------------------------------------
 
                    Orbital Energies (a.u.)
 --------------------------------------------------------------
 
 Alpha MOs
 -- Occupied --
-66.1001 -24.7411 -24.7411 -24.7410 -10.4668 -10.1592 -10.1579 -10.1579
 -6.8698  -5.2622  -4.8954  -4.8819  -4.8819  -3.6207  -3.6196  -3.6196
 -1.9433  -1.9390  -1.9389  -1.9274  -1.9274  -1.3460  -1.2566  -1.2565
 -0.7675  -0.7207  -0.6999  -0.6859  -0.6851  -0.6231  -0.6230  -0.5746
 -0.4985  -0.4985  -0.4862  -0.4631  -0.4631  -0.4395  -0.4271  -0.4162
 -0.4161  -0.4002  -0.3995  -0.3901  -0.3775  -0.3201  -0.3145  -0.3140
 -0.2917  -0.2914
 -- Virtual --
 -0.0682  -0.0065   0.0059   0.0102   0.0134   0.0286   0.0319   0.0356
  0.0498   0.0530   0.0596   0.0617   0.0639   0.0740   0.0771   0.0787
  0.0787   0.0866   0.0924   0.0962   0.0978   0.1073   0.1077   0.1107
  0.1148   0.1164   0.1190   0.1208   0.1361   0.1377   0.1396   0.1488
  0.1536   0.1560   0.1608   0.1655   0.1735   0.1759   0.1844   0.1869
  0.1909   0.1918   0.2023   0.2024   0.2135   0.2190   0.2205   0.2343
  0.2422   0.2478   0.2507   0.2546   0.2601   0.2645   0.2661   0.2703
  0.2731   0.2750   0.2808   0.2813   0.2895   0.2914   0.3019   0.3052
  0.3056   0.3132   0.3152   0.3158   0.3187   0.3263   0.3312   0.3342
  0.3410   0.3510   0.3519   0.3543   0.3573   0.3575   0.3662   0.3688
  0.3739   0.3743   0.3834   0.3998   0.4010   0.4016   0.4038   0.4102
  0.4130   0.4158   0.4269   0.4323   0.4369   0.4403   0.4478   0.4495
  0.4501   0.4587   0.4631   0.4660   0.4695   0.4811   0.4907   0.5015
  0.5085   0.5143   0.5167   0.5191   0.5302   0.5465   0.5523   0.5523
  0.5651   0.5664   0.5755   0.5833   0.5842   0.5897   0.5979   0.6013
  0.6065   0.6190   0.6242   0.6267   0.6330   0.6444   0.6506   0.6578
  0.6615   0.6622   0.6692   0.6742   0.6858   0.6957   0.7061   0.7080
  0.7122   0.7130   0.7195   0.7272   0.7273   0.7318   0.7384   0.7439
  0.7448   0.7633   0.7677   0.7752   0.7895   0.7896   0.8044   0.8209
  0.8216   0.8277   0.8334   0.8512   0.8555   0.8604   0.8638   0.8788
  0.8914   0.8917   0.8984   0.9035   0.9064   0.9180   0.9424   0.9527
  0.9686   0.9705   0.9720   1.0001   1.0279   1.0403   1.0452   1.0474
  1.0540   1.0576   1.0579   1.0709   1.0738   1.0836   1.0992   1.1766
  1.1767   1.1785   1.1841   1.1883   1.1903   1.1949   1.1995   1.1996
  1.2100   1.2114   1.2141   1.2233   1.2285   1.2415   1.2433   1.2510
  1.2659   1.2799   1.2814   1.2973   1.3128   1.3382   1.3465   1.3491
  1.3589   1.3645   1.3747   1.3748   1.3885   1.4000   1.4029   1.4165
  1.4183   1.4335   1.4639   1.4652   1.4761   1.5077   1.5261   1.5328
  1.5351   1.5429   1.5515   1.5673   1.5755   1.6008   1.6025   1.6090
  1.6189   1.6416   1.6487   1.6542   1.6803   1.6829   1.7053   1.7225
  1.7287   1.7319   1.7381   1.7525   1.7908   1.7968   1.8395   1.8523
  1.8846   1.8975   1.9036   1.9167   2.0292   2.0314   2.0329   2.0363
  2.0490   2.0507   2.0804   2.1125   2.1559   2.1582   2.2156   2.2311
  2.2404   2.2736   2.2786   2.3114   2.3339   2.3907   2.4377   2.4423
  2.4568   2.4887   2.5516   2.5560   2.5798   2.6501   2.7764   2.7765
  2.7789   2.7929   2.7988   2.8335   2.8344   2.8419   2.8475   2.8578
  2.8630   2.8717   2.8748   2.8756   2.8859   2.9015   2.9023   2.9237
  2.9377   2.9512   2.9687   3.0026   3.0029   3.0349   3.0374   3.0435
  3.0608   3.0631   3.0651   3.0689   3.0798   3.0818   3.0933   3.0972
  3.1325   3.1346   3.1675   3.1979   3.2040   3.2218   3.2232   3.2234
  3.2743   3.2747   3.2796   3.2802   3.3119   3.3175   3.3581   3.3837
  3.3878   3.3949   3.4043   3.4048   3.4183   3.4229   3.4598   3.4682
  3.4731   3.4928   3.4968   3.5025   3.5176   3.5180   3.5483   3.5570
  3.5594   3.5744   3.5892   3.5980   3.6057   3.6241   3.6426   3.6681
  3.7032   3.7082   3.7172   3.7360   3.7377   3.7694   3.8272   3.8471
  3.8476   3.8543   3.8947   3.8957   3.9088   3.9198   3.9390   3.9424
  3.9748   3.9779   3.9850   4.0116   4.0233   4.0376   4.0489   4.0514
  4.1008   4.1256   4.1310   4.1328   4.1572   4.1662   4.1693   4.1841
  4.1968   4.2058   4.2432   4.2588   4.2878   4.2887   4.2917   4.3025
  4.3123   4.3197   4.3541   4.3604   4.3769   4.5593   4.5611   4.5762
  4.5934   4.5941   4.6081   4.6103   4.6631   4.7018   4.7036   4.7291
  4.8536   4.8558   5.0246   5.0429   5.0430   5.0679   5.0680   5.0910
  5.1132   5.1135   5.1549   5.1681   5.1750   5.1785   5.2354   5.2541
  5.2580   5.2695   5.2894   5.2898   5.3276   5.3330   5.3437   5.3805
  5.3809   5.4144   5.4570   5.4624   5.4729   5.6549   5.6663   5.6695
  5.6860   5.6978   5.7010   6.7535   6.7647   6.8051   6.8127   6.8127
  6.8190   6.8192   6.8226   6.8325   6.8326   6.8339   6.8701   6.9669
  6.9669   7.0032   7.1115   7.1119   7.1256   7.3347   7.3360   7.3938
  7.5492   7.5837   7.5846   8.4127   8.4156   8.4184   8.5320   8.5333
  8.5804   8.7151   8.7286   8.7288   8.8138   9.0348   9.0363   9.1308
  9.3064   9.3095  12.2294  22.7727  23.5096  23.5107  23.5243  34.5798
 34.6206  34.8299  43.0799  57.2709  57.3030  57.3607 117.8769
 --------------------------------------------------------------
 
          Ground-State Mulliken Net Atomic Charges

     Atom                 Charge (a.u.)
  ----------------------------------------
      1 C                    -0.384673
      2 Si                    0.327093
      3 C                    -0.380312
      4 C                    -0.384646
      5 H                    -0.209867
      6 H                     0.108032
      7 H                     0.131892
      8 H                     0.119805
      9 H                     0.102146
     10 H                     0.102154
     11 H                     0.128668
     12 H                     0.119702
     13 H                     0.131964
     14 H                     0.108005
     15 I                    -0.033554
     16 C                     0.673962
     17 F                    -0.222000
     18 F                    -0.216357
     19 F                    -0.222015
  ----------------------------------------
  Sum of atomic charges =     0.000000

 -----------------------------------------------------------------
                    Cartesian Multipole Moments
 -----------------------------------------------------------------
    Charge (ESU x 10^10)
                -0.0000
    Dipole Moment (Debye)
         X       2.1041      Y       0.0010      Z       0.1644
       Tot       2.1105
    Quadrupole Moments (Debye-Ang)
        XX     -81.6687     XY       0.0002     YY     -83.9701
        XZ       0.9574     YZ      -0.0006     ZZ     -84.0740
    Octopole Moments (Debye-Ang^2)
       XXX     -81.2600    XXY       0.1213    XYY     -32.5320
       YYY       0.2419    XXZ       1.1270    XYZ       0.0016
       YYZ      -9.3839    XZZ     -32.3909    YZZ       0.1420
       ZZZ     -12.3461
    Hexadecapole Moments (Debye-Ang^3)
      XXXX   -4031.2282   XXXY      -0.4223   XXYY    -743.0186
      XYYY      -0.6566   YYYY    -437.6006   XXXZ      37.5004
      XXYZ       0.0304   XYYZ     -11.7312   YYYZ       0.1152
      XXZZ    -731.5366   XYZZ      -0.1090   YYZZ    -137.5697
      XZZZ      -0.5408   YZZZ       0.1578   ZZZZ    -373.5569
 -----------------------------------------------------------------
 Total job time:  1703.43s(wall), 13203.66s(cpu) 
 Wed Jun  5 01:10:22 2024

        *************************************************************
        *                                                           *
        *  Thank you very much for using Q-Chem.  Have a nice day.  *
        *                                                           *
        *************************************************************


