
Running Job 1 of 1 water_dimer_eda2_op1_B3LYP-D3BJ_tzvppd.in
qchem water_dimer_eda2_op1_B3LYP-D3BJ_tzvppd.in_1455944.0 /data/scratch/water_dimer_eda2_op1_B3LYP-D3BJ_tzvppd20240605003643/ 1
/opt/qchem/6.1/exe/qcprog.exe_s water_dimer_eda2_op1_B3LYP-D3BJ_tzvppd.in_1455944.0 /data/scratch/water_dimer_eda2_op1_B3LYP-D3BJ_tzvppd20240605003643/
                  Welcome to Q-Chem
     A Quantum Leap Into The Future Of Chemistry


 Q-Chem 6.1, Q-Chem, Inc., Pleasanton, CA (2023)

 E. Epifanovsky,  A. T. B. Gilbert,  Xintian Feng,  Joonho Lee,  Yuezhi Mao,  
 N. Mardirossian,  P. Pokhilko,  A. White,  M. Wormit,  M. P. Coons,  
 A. L. Dempwolff,  Zhengting Gan,  D. Hait,  P. R. Horn,  L. D. Jacobson,  
 I. Kaliman,  J. Kussmann,  A. W. Lange,  Ka Un Lao,  D. S. Levine,  Jie Liu,  
 S. C. McKenzie,  A. F. Morrison,  K. D. Nanda,  F. Plasser,  D. R. Rehn,  
 M. L. Vidal,  Zhi-Qiang You,  Ying Zhu,  B. Alam,  B. Albrecht,  
 A. Aldossary,  E. Alguire,  J. H. Andersen,  V. Athavale,  D. Barton,  
 K. Begam,  A. Behn,  N. Bellonzi,  Y. A. Bernard,  E. J. Berquist,  
 H. Burton,  A. Carreras,  K. Carter-Fenk,  Mathew Chow,  Romit Chakraborty,  
 Chandrima Chakravarty,  Junhan Chen,  A. D. Chien,  K. D. Closser,  
 V. Cofer-Shabica,  L. Cunha,  S. Dasgupta,  Jia Deng,  M. de Wergifosse,  
 M. Diedenhofen,  Hainam Do,  S. Ehlert,  Po-Tung Fang,  S. Fatehi,  
 Qingguo Feng,  T. Friedhoff,  Thomas Froitzheim,  B. Ganoe,  J. Gayvert,  
 Qinghui Ge,  G. Gidofalvi,  M. Gimferrer,  M. Goldey,  Montgomery Gray,  
 J. Gomes,  C. Gonzalez-Espinoza,  S. Gulania,  A. Gunina,  J. A. Gyamfi,  
 M. W. D. Hanson-Heine,  P. H. P. Harbach,  A. W. Hauser,  M. F. Herbst,  
 M. Hernandez Vera,  M. Hodecker,  Z. C. Holden,  S. Houck,  Xunkun Huang,  
 Kerwin Hui,  B. C. Huynh,  K. Ikeda,  M. Ivanov,  Hyunjun Ji,  Zuxin Jin,  
 Hanjie Jiang,  Subrata Jana,  B. Kaduk,  S. Kaehler,  R. Kang,  
 K. Khistyaev,  Jaehoon Kim,  Yongbin Kim,  P. Klunzinger,  Z. Koczor-Benda,  
 Joong Hoon Koh,  D. Kosenkov,  Saikiran Kotaru,  L. Koulias,  T. Kowalczyk,  
 C. M. Krauter,  K. Kue,  A. Kunitsa,  T. Kus,  A. Landau,  K. V. Lawler,  
 D. Lefrancois,  S. Lehtola,  Rain Li,  Shaozhi Li,  Yi-Pei Li,  
 Jiashu Liang,  M. Liebenthal,  Hung-Hsuan Lin,  You-Sheng Lin,  Fenglai Liu,  
 Kuan-Yu Liu,  Xiao Liu,  M. Loipersberger,  A. Luenser,  C. Malbon,  
 A. Manjanath,  P. Manohar,  E. Mansoor,  S. F. Manzer,  Shan-Ping Mao,  
 A. V. Marenich,  T. Markovich,  S. Mason,  F. Matz,  S. A. Maurer,  
 P. F. McLaughlin,  M. F. S. J. Menger,  J.-M. Mewes,  S. A. Mewes,  
 P. Morgante,  Mohammad Mostafanejad,  J. W. Mullinax,  K. J. Oosterbaan,  
 G. Paran,  V. Parravicini,  Alexander C. Paul,  Suranjan K. Paul,  
 F. Pavosevic,  Zheng Pei,  S. Prager,  E. I. Proynov,  E. Ramos,  B. Rana,  
 A. E. Rask,  A. Rettig,  R. M. Richard,  F. Rob,  E. Rossomme,  T. Scheele,  
 M. Scheurer,  M. Schneider,  P. E. Schneider,  Tim K. Schramm,  N. Sergueev,  
 S. M. Sharada,  M. Sharma,  Hengyuan Shen,  W. Skomorowski,  D. W. Small,  
 C. J. Stein,  Alistair J. Sterling,  Yingli Su,  Yu-Chuan Su,  
 E. J. Sundstrom,  J. Talbot,  Zhen Tao,  J. Thirman,  Hung-Yi Tsai,  
 T. Tsuchimochi,  N. M. Tubman,  C. Utku,  S. P. Veccham,  O. Vydrov,  
 J. Wenzel,  Jonathan Wong,  J. Witte,  A. Yamada,  Chou-Hsun Yang,  Kun Yao,  
 S. Yeganeh,  S. R. Yost,  A. Zech,  F. Zeller,  Igor Ying Zhang,  
 Xing Zhang,  Yu Zhang,  D. Zuev,  A. Aspuru-Guzik,  A. T. Bell,  
 N. A. Besley,  K. B. Bravaya,  B. R. Brooks,  D. Casanova,  Jeng-Da Chai,  
 Hsing-Ta Chen,  S. Coriani,  C. J. Cramer,  A. E. DePrince, III,  
 R. A. DiStasio Jr.,  A. Dreuw,  B. D. Dunietz,  T. R. Furlani,  
 W. A. Goddard III,  S. Grimme,  S. Hammes-Schiffer,  T. Head-Gordon,  
 W. J. Hehre,  Chao-Ping Hsu,  T.-C. Jagau,  Yousung Jung,  A. Klamt,  
 Jing Kong,  D. S. Lambrecht,  Xiangyuan Li,  WanZhen Liang,  N. J. Mayhall,  
 C. W. McCurdy,  J. B. Neaton,  T. Neudecker,  C. Ochsenfeld,  
 J. A. Parkhill,  R. Peverati,  V. A. Rassolov,  Haisheng Ren,  Yihan Shao,  
 L. V. Slipchenko,  R. P. Steele,  J. E. Subotnik,  A. J. W. Thom,  
 A. Tkatchenko,  D. G. Truhlar,  T. Van Voorhis,  Fan Wang,  
 T. A. Wesolowski,  K. B. Whaley,  H. L. Woodcock III,  P. M. Zimmerman,  
 S. Faraji,  P. M. W. Gill,  M. Head-Gordon,  J. M. Herbert,  A. I. Krylov

 Contributors to earlier versions of Q-Chem not listed above: 
 R. D. Adamson,  B. Austin,  R. Baer,  J. Baker,  G. J. O. Beran,  
 K. Brandhorst,  S. T. Brown,  E. F. C. Byrd,  Arup K. Chakraborty,  
 G. K. L. Chan,  Chun-Min Chang,  Yunqing Chen,  C.-L. Cheng,  
 Siu Hung Chien,  D. M. Chipman,  D. L. Crittenden,  H. Dachsel,  
 R. J. Doerksen,  A. D. Dutoi,  R. G. Edgar,  J. Fosso-Tande,  
 L. Fusti-Molnar,  D. Ghosh,  A. Ghysels,  A. Golubeva-Zadorozhnaya,  
 J. Gonthier,  M. S. Gordon,  S. R. Gwaltney,  G. Hawkins,  J. E. Herr,  
 A. Heyden,  S. Hirata,  E. G. Hohenstein,  G. Kedziora,  F. J. Keil,  
 C. Kelley,  Jihan Kim,  R. A. King,  R. Z. Khaliullin,  P. P. Korambath,  
 W. Kurlancheek,  A. Laurent,  A. M. Lee,  M. S. Lee,  S. V. Levchenko,  
 Ching Yeh Lin,  D. Liotard,  E. Livshits,  R. C. Lochan,  I. Lotan,  
 L. A. Martinez-Martinez,  P. E. Maslen,  N. Nair,  D. P. O'Neill,  
 D. Neuhauser,  E. Neuscamman,  C. M. Oana,  R. Olivares-Amaya,  R. Olson,  
 T. M. Perrine,  B. Peters,  P. A. Pieniazek,  A. Prociuk,  Y. M. Rhee,  
 J. Ritchie,  M. A. Rohrdanz,  E. Rosta,  N. J. Russ,  H. F. Schaefer III,  
 M. W. Schmidt,  N. E. Schultz,  S. Sharma,  N. Shenvi,  C. D. Sherrill,  
 A. C. Simmonett,  A. Sodt,  T. Stein,  D. Stuck,  K. S. Thanthiriwatte,  
 V. Vanovschi,  L. Vogt,  Tao Wang,  A. Warshel,  M. A. Watson,  
 C. F. Williams,  Q. Wu,  X. Xu,  Jun Yang,  W. Zhang,  Yan Zhao

   Please cite Q-Chem as follows:
  "Software for the frontiers of quantum chemistry:
   An overview of developments in the Q-Chem 5 package"
   J. Chem. Phys. 155, 084801 (2021)
   https://doi.org/10.1063/5.0055522 (open access)

 Q-Chem 6.1.1 for Intel X86 EM64T Linux

 Parts of Q-Chem use Armadillo 9.900.5 (Nocturnal Misbehaviour).
 http://arma.sourceforge.net/

 Q-Chem begins on Wed Jun  5 00:36:44 2024  

 Host: 
0

     Scratch files written to /data/scratch/water_dimer_eda2_op1_B3LYP-D3BJ_tzvppd20240605003643//
 Jan1824 |scratch|qcdevops|jenkins|workspace|build_RNUM -1
 Processing $rem in /opt/qchem/6.1/config/preferences:
 Processing $rem in /home/ymao/.qchemrc:

 Q-Chem warning in module libgen/rem_setup.C, line 3361:

 Neither GIA nor STOLL is specified by user. Use STOLL as the default


 Checking the input file for inconsistencies... 	...done.

--------------------------------------------------------------
User input:
--------------------------------------------------------------
$molecule
0 1
--
0 1
O    -1.51598   -0.11939   0.00000
H    -1.92502   0.75089    0.00000
H    -0.55962   0.04345    0.00000
--
0 1
O    1.37714    0.09749    0.00000
H    1.75572    -0.34454   0.76773
H    1.75572    -0.34454   -0.76773
$end

$rem
JOBTYPE  EDA
EDA2  1
METHOD  B3LYP
BASIS  DEF2-TZVPPD
SYMMETRY  FALSE
SYM_IGNORE  TRUE
MEM_TOTAL  8000
MEM_STATIC  2000
BASIS_LIN_DEP_THRESH  6
THRESH  14
SCF_CONVERGENCE  8
GEN_SCFMAN  TRUE
MAXSCF  200
FD_MAT_VEC_PROD  FALSE
XC_GRID  000099000590
NL_GRID  1
DFT_D  D3_BJ
SCF_GUESS  FRAGMO
FRZ_ORTHO_DECOMP  -1
EDA_CLS_DISP  TRUE
EDA_POL_A  TRUE
EDA_VCT_A  TRUE
$end
--------------------------------------------------------------
 Adding empirical dispersion correction 
 ----------------------------------------------------------------
 Doing -D3(BJ) with
 s6  =   1.00000
 s8  =   1.98890
 a1  =   0.39810
 a2  =   4.42110
 ----------------------------------------------------------------
 -D3 energy without 3body term =     -0.0021507815 hartrees
 ----------------------------------------------------------------
             Standard Nuclear Orientation (Angstroms)
    I     Atom           X                Y                Z
 ----------------------------------------------------------------
    1      O      -1.5159800000    -0.1193900000     0.0000000000
    2      H      -1.9250200000     0.7508900000     0.0000000000
    3      H      -0.5596200000     0.0434500000     0.0000000000
    4      O       1.3771400000     0.0974900000     0.0000000000
    5      H       1.7557200000    -0.3445400000     0.7677300000
    6      H       1.7557200000    -0.3445400000    -0.7677300000
 ----------------------------------------------------------------
 Nuclear Repulsion Energy =          36.56995483 hartrees
 There are       10 alpha and       10 beta electrons
 Requested basis set is def2-TZVPPD
 There are 56 shells and 148 basis functions

 Total QAlloc Memory Limit   8000 MB
 Mega-Array Size      1956 MB
 MEM_STATIC part      2000 MB


                       Distance Matrix (Angstroms)
             O (  1)   H (  2)   H (  3)   O (  4)   H (  5)
   H (  2)  0.961614
   H (  3)  0.970124  1.537787
   O (  4)  2.901238  3.366184  1.937514
   H (  5)  3.368104  3.916277  2.469969  0.963391
   H (  6)  3.368104  3.916277  2.469969  0.963391  1.535460
 
 A cutoff of  1.0D-14 yielded   1549 shell pairs
 There are     11031 function pairs (     13602 Cartesian)
 Smallest overlap matrix eigenvalue = 3.14E-04

 Scale SEOQF with 1.000000e-01/1.000000e-01/1.000000e-01

 Standard Electronic Orientation quadrupole field applied
 Nucleus-field energy     =     0.0000000015 hartrees

 -----------------------------------------------------------------------
  General SCF calculation program by
  Eric Jon Sundstrom, Paul Horn, Yuezhi Mao, Dmitri Zuev, Alec White,
  David Stuck, Shaama M.S., Shane Yost, Joonho Lee, David Small,
  Daniel Levine, Susi Lehtola, Hugh Burton, Evgeny Epifanovsky,
  Bang C. Huynh
 -----------------------------------------------------------------------
================================================================
                 ALMO-EDA with the EDA2 driver                  
================================================================
 The second-generation ALMO-EDA (for DFT):                      
 P. R. Horn, Y. Mao and M. Head-Gordon, PCCP, 18, 23067 (2016)  
 Y. Mao et al. Annu. Rev. Phys. Chem. 72, 641 (2021)            
 Decomposition of the frozen energy:                            
 P. R. Horn, Y. Mao and M. Head-Gordon, JCP, 144, 114107 (2016) 
 FERF model for polarization:                                   
 P. R. Horn and M. Head-Gordon, JCP, 143, 114111 (2015)         
================================================================
 Using eda2 option set 1
 Option set summary: Frozen orbital wavefunction, initial wavefunction decomposition, and nDQ polarization.
--------------------------------
Printing EDA Options
--------------------------------
eda_child_super_basis      0
fragmo_guess_mode          0
child_mp                   1
child_mp_orders            232
cls_elec                   1
cls_disp                   1
scfmi_mode                 1
scfmi_occs                 0
scfmi_virts                0
frz_relax                  0
frz_relax_method           0
dc_pen_start               0
dc_pen_conv                0
dc_pen_increment           0
dc_pen_steps               0
dc_pen_thresh_factor       0
dc_pen_pre_newton_thresh   0
frz_ortho_decomp           0
frz_ortho_decomp_conv      6
plot_mo_ortho_frz          0
frgm_method                2
scfmi_freeze_ss            0
separate_rehyb             0
plot_diff_den              0
eda_nocv                   0
eda_vct_relax              1
disp_free_x                0
disp_free_c                0
eda_bsse                   0
eda_pct_a                  0
eda_covp                   0
eda_vct_a                  1
--------------------------------
 Attempting to make child job directory: /data/scratch/water_dimer_eda2_op1_B3LYP-D3BJ_tzvppd20240605003643//Frg1/
 Attempting to make child job directory: /data/scratch/water_dimer_eda2_op1_B3LYP-D3BJ_tzvppd20240605003643//Frg2/
 Creating input file /data/scratch/water_dimer_eda2_op1_B3LYP-D3BJ_tzvppd20240605003643/Frg1.input
 using default PutDataFrgm: nothing
 calling putenv with: QCSCRATCH=/data/scratch/water_dimer_eda2_op1_B3LYP-D3BJ_tzvppd20240605003643/ 
 Spawning Job For Fragment 0
 Done Job For Fragment 0
 calling putenv with: QCSCRATCH=/data/scratch 
 calling putenv with: QCTHREADS=16 
 Creating input file /data/scratch/water_dimer_eda2_op1_B3LYP-D3BJ_tzvppd20240605003643/Frg2.input
 using default PutDataFrgm: nothing
 calling putenv with: QCSCRATCH=/data/scratch/water_dimer_eda2_op1_B3LYP-D3BJ_tzvppd20240605003643/ 
 Spawning Job For Fragment 1
 Done Job For Fragment 1
 calling putenv with: QCSCRATCH=/data/scratch 
 calling putenv with: QCTHREADS=16 
Doing General SCFMI
 Exchange:     0.2000 Hartree-Fock + 0.0800 Slater + 0.7200 B88
 Correlation:  0.1900 VWN1RPA + 0.8100 LYP
 Using Euler-Maclaurin-Lebedev (99,590) quadrature formula
 Dispersion:   Grimme D3
performing fock build before subrot guess so that all methods have access
Printing subrot_rss_gen Method Specification:
Occupied Subspace Method is 0
Virtual Subspace Method is 0
Energy of the unrelaxed supersystem initial determinant -152.943169942662
write pseudocanon occs and virts to disk
write pseudocanon orbital energies to disk
 Exchange:     0.2000 Hartree-Fock + 0.0800 Slater + 0.7200 B88
 Correlation:  0.1900 VWN1RPA + 0.8100 LYP
 Using Euler-Maclaurin-Lebedev (99,590) quadrature formula
 Dispersion:   Grimme D3
 Hartree-Fock
Doing General SCFMI
 Exchange:     0.2000 Hartree-Fock + 0.0800 Slater + 0.7200 B88
 Correlation:  0.1900 VWN1RPA + 0.8100 LYP
 Using Euler-Maclaurin-Lebedev (99,590) quadrature formula
 Dispersion:   Grimme D3
performing fock build at end of subrot_r(subrot) constructor so that all methods have access
<S^2> of initial wavefunction before polarization iterations 0.0000000000
Beginning iterations for the determination of the polarized wavefunction
Energy prior to optimization (guess energy) = -152.943169942662
Begin Timing: Total SCF Calculation
begin iterations for algorithm: DIIS         
the SCF tolerance is set to 1.00e-08
    1    -152.9431699427      6.31e-04     00000 
    2    -152.9449163161      1.74e-04     00000 
    3    -152.9449792704      1.11e-04     00000 
    4    -152.9449946995      5.90e-05     00000 
    5    -152.9450005551      8.09e-06     00000 
    6    -152.9450008445      1.33e-06     00000 
    7    -152.9450008569      3.28e-07     00000 
    8    -152.9450008572      1.74e-07     00000 
    9    -152.9450008572      1.14e-07     00000 
   10    -152.9450008572      1.83e-08     00000 
   11    -152.9450008572      5.42e-09     00000 Convergence criterion met
write pseudocanon occs and virts to disk
write pseudocanon orbital energies to disk
Timing for Total SCF: 7.00s (wall), 98.33s (cpu)
<S^2> of polarized wavefunction after polarization iterations 0.0000000000
Doing General SCFMI
 Exchange:     0.2000 Hartree-Fock + 0.0800 Slater + 0.7200 B88
 Correlation:  0.1900 VWN1RPA + 0.8100 LYP
 Using Euler-Maclaurin-Lebedev (99,590) quadrature formula
 Dispersion:   Grimme D3
performing fock build at end of subrot_r(subrot) constructor so that all methods have access
GDM subspace size: 20
    1       0.0012316088      7.02e-03     00000 Preconditoned Steepest Descent
    2       0.0110645365      2.10e-02     00000 LineSearch Step
    3       0.0000000010      6.43e-06     00000 BFGS Step
    4       0.0000000001      2.42e-06     00000 BFGS Step
    5       0.0000000007      5.16e-06     00000 LineSearch Step
    6       0.0000000000      7.64e-07     00000 BFGS Step
    7       0.0000000000      4.00e-08     00000 BFGS Step
GDM subspace size: 20
    1       0.0016263039      8.06e-03     00000 Preconditoned Steepest Descent
    2       0.0146007114      2.41e-02     00000 LineSearch Step
    3       0.0000000024      9.81e-06     00000 BFGS Step
    4       0.0000000003      3.65e-06     00000 BFGS Step
    5       0.0000000015      7.83e-06     00000 LineSearch Step
    6       0.0000000000      1.14e-06     00000 BFGS Step
    7       0.0000000000      5.84e-08     00000 BFGS Step
=========Fragment P Connection POL Analysis Result=========
P Connection Polarization Energy (kJ/mol)  : -4.807065
P Connection On-Fragment Charge Shift (me-): +2.657508
First Principle Polarization Energy (kJ/mol)  : -4.807065
First Principle On-Fragment Charge Shift (me-): +2.657508
___________________________________________________________
=========Fragment-wise P Connection POL Analysis=========
[Fragment 1]
E_1 (kJ/mol): -1.688730, Q_1 (me-): +1.110132
[Fragment 2]
E_2 (kJ/mol): -3.118336, Q_2 (me-): +1.547376
_________________________________________________________
==============================================================
           Fragment P Connection POL COVP Analysis            
==============================================================
Using user defined COVP significance threshold 18446744073708552.000 (kJ/mol)
--------------------------------------------------------------
 D  A  dE (kJ/mol)  dE %    dQ (me-)  dQ %    idx(D)  idx(A)
______________________________________________________________
relaxing scfmi constraint to allow all rotations in the entire AO span
Doing General SCFMI
 Exchange:     0.2000 Hartree-Fock + 0.0800 Slater + 0.7200 B88
 Correlation:  0.1900 VWN1RPA + 0.8100 LYP
 Using Euler-Maclaurin-Lebedev (99,590) quadrature formula
 Dispersion:   Grimme D3
performing fock build at end of subrot_r(subrot) constructor so that all methods have access
<S^2> of polarized wavefunction before ct-allowed iterations 0.0000000000
Beginning iterations for the determination of the CT-Allowed wavefunction
Energy prior to optimization (guess energy) = -152.945000857214
Begin Timing: Total SCF Calculation
begin iterations for algorithm: DIIS         
the SCF tolerance is set to 1.00e-08
    1    -152.9450008572      4.77e-04     00000 
    2    -152.9482588410      5.30e-05     00000 
    3    -152.9482474671      7.56e-05     00000 
    4    -152.9482883336      6.20e-06     00000 
    5    -152.9482886362      2.17e-06     00000 
    6    -152.9482886637      1.14e-06     00000 
    7    -152.9482886732      9.41e-08     00000 
    8    -152.9482886733      1.44e-08     00000 
    9    -152.9482886733      1.97e-09     00000 Convergence criterion met
write pseudocanon occs and virts to disk
write pseudocanon orbital energies to disk
Timing for Total SCF: 6.00s (wall), 77.57s (cpu)
<S^2> of ct_allowed wavefunction after ct-allowed iterations 0.0000000000
GDM subspace size: 20
    1       0.0035183024      4.51e-03     00000 Preconditoned Steepest Descent
    2       0.0314580872      1.34e-02     00000 LineSearch Step
    3       0.0000000326      1.38e-05     00000 BFGS Step
    4       0.0000000027      3.93e-06     00000 BFGS Step
    5       0.0000000159      9.59e-06     00000 LineSearch Step
    6       0.0000000002      1.02e-06     00000 BFGS Step
    7       0.0000000000      3.00e-08     00000 BFGS Step

==============Non-Perturbative CT Analysis Result===============
Non-Perturbative CT Energy (kJ/mol)   : -8.632160
Non-Perturbative Charge Transfer (me-): +3.518302
First Principle CT Energy (kJ/mol)    : -8.632160
First Principle Charge Transfer (me-) : +3.518302
_______________________________________________________________
========Fragment-wise Non-Perturbative CT Analysis=======
---Fragment-wise CT energies (row to col, kJ/mol)
			1			2
	1   -0.032288   -0.459338
	2   -8.160493    0.019959
---Fragment-wise charge transfer (row to col, me-)
			1			2
	1   -0.003477    0.232062
	2    4.057229   -0.767512
_________________________________________________________
==============================================================
              Non-Perturbative CT COVP Analysis               
==============================================================
Using user defined COVP significance threshold 18446744073708552.000 (kJ/mol)
--------------------------------------------------------------
 D  A  dE (kJ/mol)  dE %    dQ (me-)  dQ %    idx(D)  idx(A)
______________________________________________________________
Done with restricted VCTA

================================
        Results of EDA2         
================================
Basic EDA Quantities
--------------------
Fragment Energies (Ha):
1  -76.4699437646
2  -76.4700085696
--------------------
  E_prp (kJ/mol) = 0.0000
  E_frz (kJ/mol) = -8.4479
  E_pol (kJ/mol) = -4.8071
  E_vct (kJ/mol) = -8.6323
  E_int (kJ/mol) = -21.8873
--------------------


Decomposition of frozen interaction energy
--------------------
  --------------------
  Classical Frozen Decomposition:
  --------------------
     E_cls_elec  (CLS ELEC)  (kJ/mol) = -35.1979
     E_mod_pauli (MOD PAULI) (kJ/mol) = 33.5927 (FRZ - CLS ELEC - CLS DISP)
     E_cls_disp  (CLS DISP)  (kJ/mol) = -6.8427
  --------------------
--------------------

Simplified EDA Summary (kJ/mol)
--------------------
 PREPARATION      0.0000
 FROZEN           -8.4479 (ELEC + PAULI + DISP)
[ELEC + PAULI = -1.6053, DISP = -6.8427]
 POLARIZATION    -4.8071
 CHARGE TRANSFER -8.6323
 TOTAL           -21.8873     (PRP + FRZ + POL + CT)
--------------------
 
 --------------------------------------------------------------
 
                    Orbital Energies (a.u.)
 --------------------------------------------------------------
 
 Alpha MOs
 -- Occupied --
-19.1636 -19.1058  -1.0464  -0.9881  -0.5663  -0.5148  -0.4288  -0.3706
 -0.3478  -0.2963
 -- Virtual --
 -0.0257   0.0210   0.0365   0.0560   0.0818   0.0904   0.1023   0.1250
  0.1348   0.1625   0.1794   0.1828   0.1959   0.2092   0.2302   0.2420
  0.2504   0.2701   0.2845   0.3155   0.3176   0.3226   0.3381   0.3959
  0.4092   0.4186   0.4579   0.4601   0.4810   0.5051   0.5328   0.5558
  0.5705   0.5752   0.6270   0.6790   0.6974   0.7113   0.7273   0.7931
  0.7954   0.8571   0.8742   0.9203   0.9954   1.0236   1.0279   1.0550
  1.0718   1.1128   1.1347   1.1825   1.2315   1.2378   1.2689   1.3233
  1.3685   1.5752   1.8368   1.8815   1.9294   1.9390   1.9671   2.0371
  2.0776   2.1445   2.2006   2.2495   2.5084   2.5423   2.6342   2.6947
  2.8514   2.8835   3.0801   3.1210   3.1373   3.1518   3.2352   3.2654
  3.2736   3.3507   3.3584   3.3594   3.3693   3.4100   3.4196   3.5853
  3.6367   3.8104   3.8335   3.8439   3.8826   3.8915   3.9668   4.0269
  4.0287   4.0576   4.1050   4.1442   4.1852   4.2132   4.2227   4.2667
  4.6383   4.6602   4.6984   4.7569   4.9215   4.9752   5.0989   5.1801
  5.5921   5.6165   6.1335   6.1627   6.4205   6.4332   6.4605   6.5046
  6.5640   6.5790   6.5981   6.6281   6.6473   6.6682   6.7544   6.8172
  6.9481   7.0641   7.3841   7.4577   7.4903   7.5587   7.7407   7.7873
 43.8275  43.9642
 --------------------------------------------------------------
 
          Ground-State Mulliken Net Atomic Charges

     Atom                 Charge (a.u.)
  ----------------------------------------
      1 O                    -0.416518
      2 H                     0.157007
      3 H                     0.262940
      4 O                    -0.392368
      5 H                     0.194470
      6 H                     0.194470
  ----------------------------------------
  Sum of atomic charges =     0.000000

 -----------------------------------------------------------------
                    Cartesian Multipole Moments
 -----------------------------------------------------------------
    Charge (ESU x 10^10)
                 0.0000
    Dipole Moment (Debye)
         X       2.7162      Y       0.2046      Z       0.0000
       Tot       2.7239
    Quadrupole Moments (Debye-Ang)
        XX     -11.2704     XY      -6.0394     YY     -13.1916
        XZ      -0.0000     YZ      -0.0000     ZZ     -12.2127
    Octopole Moments (Debye-Ang^2)
       XXX       8.8108    XXY       1.4518    XYY      -1.0175
       YYY       0.8499    XXZ       0.0000    XYZ      -0.0000
       YYZ      -0.0000    XZZ       6.4857    YZZ      -0.7408
       ZZZ       0.0000
    Hexadecapole Moments (Debye-Ang^3)
      XXXX    -171.5569   XXXY     -23.6771   XXYY     -31.2849
      XYYY      -4.2110   YYYY     -15.6923   XXXZ      -0.0000
      XXYZ      -0.0000   XYYZ      -0.0000   YYYZ       0.0000
      XXZZ     -29.1236   XYZZ      -2.3195   YYZZ      -5.1713
      XZZZ      -0.0000   YZZZ       0.0000   ZZZZ     -14.6656
 -----------------------------------------------------------------
 Total job time:  37.93s(wall), 339.73s(cpu) 
 Wed Jun  5 00:37:22 2024

        *************************************************************
        *                                                           *
        *  Thank you very much for using Q-Chem.  Have a nice day.  *
        *                                                           *
        *************************************************************


