
Running Job 1 of 2 Me3SiH_ICN_vfb_forward.in
qchem Me3SiH_ICN_vfb_forward.in_2648471.0 /data/scratch/Me3SiH_ICN_vfb_forward20240611033149/ 1
/opt/qchem/6.1/exe/qcprog.exe_s Me3SiH_ICN_vfb_forward.in_2648471.0 /data/scratch/Me3SiH_ICN_vfb_forward20240611033149/
                  Welcome to Q-Chem
     A Quantum Leap Into The Future Of Chemistry


 Q-Chem 6.1, Q-Chem, Inc., Pleasanton, CA (2023)

 E. Epifanovsky,  A. T. B. Gilbert,  Xintian Feng,  Joonho Lee,  Yuezhi Mao,  
 N. Mardirossian,  P. Pokhilko,  A. White,  M. Wormit,  M. P. Coons,  
 A. L. Dempwolff,  Zhengting Gan,  D. Hait,  P. R. Horn,  L. D. Jacobson,  
 I. Kaliman,  J. Kussmann,  A. W. Lange,  Ka Un Lao,  D. S. Levine,  Jie Liu,  
 S. C. McKenzie,  A. F. Morrison,  K. D. Nanda,  F. Plasser,  D. R. Rehn,  
 M. L. Vidal,  Zhi-Qiang You,  Ying Zhu,  B. Alam,  B. Albrecht,  
 A. Aldossary,  E. Alguire,  J. H. Andersen,  V. Athavale,  D. Barton,  
 K. Begam,  A. Behn,  N. Bellonzi,  Y. A. Bernard,  E. J. Berquist,  
 H. Burton,  A. Carreras,  K. Carter-Fenk,  Mathew Chow,  Romit Chakraborty,  
 Chandrima Chakravarty,  Junhan Chen,  A. D. Chien,  K. D. Closser,  
 V. Cofer-Shabica,  L. Cunha,  S. Dasgupta,  Jia Deng,  M. de Wergifosse,  
 M. Diedenhofen,  Hainam Do,  S. Ehlert,  Po-Tung Fang,  S. Fatehi,  
 Qingguo Feng,  T. Friedhoff,  Thomas Froitzheim,  B. Ganoe,  J. Gayvert,  
 Qinghui Ge,  G. Gidofalvi,  M. Gimferrer,  M. Goldey,  Montgomery Gray,  
 J. Gomes,  C. Gonzalez-Espinoza,  S. Gulania,  A. Gunina,  J. A. Gyamfi,  
 M. W. D. Hanson-Heine,  P. H. P. Harbach,  A. W. Hauser,  M. F. Herbst,  
 M. Hernandez Vera,  M. Hodecker,  Z. C. Holden,  S. Houck,  Xunkun Huang,  
 Kerwin Hui,  B. C. Huynh,  K. Ikeda,  M. Ivanov,  Hyunjun Ji,  Zuxin Jin,  
 Hanjie Jiang,  Subrata Jana,  B. Kaduk,  S. Kaehler,  R. Kang,  
 K. Khistyaev,  Jaehoon Kim,  Yongbin Kim,  P. Klunzinger,  Z. Koczor-Benda,  
 Joong Hoon Koh,  D. Kosenkov,  Saikiran Kotaru,  L. Koulias,  T. Kowalczyk,  
 C. M. Krauter,  K. Kue,  A. Kunitsa,  T. Kus,  A. Landau,  K. V. Lawler,  
 D. Lefrancois,  S. Lehtola,  Rain Li,  Shaozhi Li,  Yi-Pei Li,  
 Jiashu Liang,  M. Liebenthal,  Hung-Hsuan Lin,  You-Sheng Lin,  Fenglai Liu,  
 Kuan-Yu Liu,  Xiao Liu,  M. Loipersberger,  A. Luenser,  C. Malbon,  
 A. Manjanath,  P. Manohar,  E. Mansoor,  S. F. Manzer,  Shan-Ping Mao,  
 A. V. Marenich,  T. Markovich,  S. Mason,  F. Matz,  S. A. Maurer,  
 P. F. McLaughlin,  M. F. S. J. Menger,  J.-M. Mewes,  S. A. Mewes,  
 P. Morgante,  Mohammad Mostafanejad,  J. W. Mullinax,  K. J. Oosterbaan,  
 G. Paran,  V. Parravicini,  Alexander C. Paul,  Suranjan K. Paul,  
 F. Pavosevic,  Zheng Pei,  S. Prager,  E. I. Proynov,  E. Ramos,  B. Rana,  
 A. E. Rask,  A. Rettig,  R. M. Richard,  F. Rob,  E. Rossomme,  T. Scheele,  
 M. Scheurer,  M. Schneider,  P. E. Schneider,  Tim K. Schramm,  N. Sergueev,  
 S. M. Sharada,  M. Sharma,  Hengyuan Shen,  W. Skomorowski,  D. W. Small,  
 C. J. Stein,  Alistair J. Sterling,  Yingli Su,  Yu-Chuan Su,  
 E. J. Sundstrom,  J. Talbot,  Zhen Tao,  J. Thirman,  Hung-Yi Tsai,  
 T. Tsuchimochi,  N. M. Tubman,  C. Utku,  S. P. Veccham,  O. Vydrov,  
 J. Wenzel,  Jonathan Wong,  J. Witte,  A. Yamada,  Chou-Hsun Yang,  Kun Yao,  
 S. Yeganeh,  S. R. Yost,  A. Zech,  F. Zeller,  Igor Ying Zhang,  
 Xing Zhang,  Yu Zhang,  D. Zuev,  A. Aspuru-Guzik,  A. T. Bell,  
 N. A. Besley,  K. B. Bravaya,  B. R. Brooks,  D. Casanova,  Jeng-Da Chai,  
 Hsing-Ta Chen,  S. Coriani,  C. J. Cramer,  A. E. DePrince, III,  
 R. A. DiStasio Jr.,  A. Dreuw,  B. D. Dunietz,  T. R. Furlani,  
 W. A. Goddard III,  S. Grimme,  S. Hammes-Schiffer,  T. Head-Gordon,  
 W. J. Hehre,  Chao-Ping Hsu,  T.-C. Jagau,  Yousung Jung,  A. Klamt,  
 Jing Kong,  D. S. Lambrecht,  Xiangyuan Li,  WanZhen Liang,  N. J. Mayhall,  
 C. W. McCurdy,  J. B. Neaton,  T. Neudecker,  C. Ochsenfeld,  
 J. A. Parkhill,  R. Peverati,  V. A. Rassolov,  Haisheng Ren,  Yihan Shao,  
 L. V. Slipchenko,  R. P. Steele,  J. E. Subotnik,  A. J. W. Thom,  
 A. Tkatchenko,  D. G. Truhlar,  T. Van Voorhis,  Fan Wang,  
 T. A. Wesolowski,  K. B. Whaley,  H. L. Woodcock III,  P. M. Zimmerman,  
 S. Faraji,  P. M. W. Gill,  M. Head-Gordon,  J. M. Herbert,  A. I. Krylov

 Contributors to earlier versions of Q-Chem not listed above: 
 R. D. Adamson,  B. Austin,  R. Baer,  J. Baker,  G. J. O. Beran,  
 K. Brandhorst,  S. T. Brown,  E. F. C. Byrd,  Arup K. Chakraborty,  
 G. K. L. Chan,  Chun-Min Chang,  Yunqing Chen,  C.-L. Cheng,  
 Siu Hung Chien,  D. M. Chipman,  D. L. Crittenden,  H. Dachsel,  
 R. J. Doerksen,  A. D. Dutoi,  R. G. Edgar,  J. Fosso-Tande,  
 L. Fusti-Molnar,  D. Ghosh,  A. Ghysels,  A. Golubeva-Zadorozhnaya,  
 J. Gonthier,  M. S. Gordon,  S. R. Gwaltney,  G. Hawkins,  J. E. Herr,  
 A. Heyden,  S. Hirata,  E. G. Hohenstein,  G. Kedziora,  F. J. Keil,  
 C. Kelley,  Jihan Kim,  R. A. King,  R. Z. Khaliullin,  P. P. Korambath,  
 W. Kurlancheek,  A. Laurent,  A. M. Lee,  M. S. Lee,  S. V. Levchenko,  
 Ching Yeh Lin,  D. Liotard,  E. Livshits,  R. C. Lochan,  I. Lotan,  
 L. A. Martinez-Martinez,  P. E. Maslen,  N. Nair,  D. P. O'Neill,  
 D. Neuhauser,  E. Neuscamman,  C. M. Oana,  R. Olivares-Amaya,  R. Olson,  
 T. M. Perrine,  B. Peters,  P. A. Pieniazek,  A. Prociuk,  Y. M. Rhee,  
 J. Ritchie,  M. A. Rohrdanz,  E. Rosta,  N. J. Russ,  H. F. Schaefer III,  
 M. W. Schmidt,  N. E. Schultz,  S. Sharma,  N. Shenvi,  C. D. Sherrill,  
 A. C. Simmonett,  A. Sodt,  T. Stein,  D. Stuck,  K. S. Thanthiriwatte,  
 V. Vanovschi,  L. Vogt,  Tao Wang,  A. Warshel,  M. A. Watson,  
 C. F. Williams,  Q. Wu,  X. Xu,  Jun Yang,  W. Zhang,  Yan Zhao

   Please cite Q-Chem as follows:
  "Software for the frontiers of quantum chemistry:
   An overview of developments in the Q-Chem 5 package"
   J. Chem. Phys. 155, 084801 (2021)
   https://doi.org/10.1063/5.0055522 (open access)

 Q-Chem 6.1.1 for Intel X86 EM64T Linux

 Parts of Q-Chem use Armadillo 9.900.5 (Nocturnal Misbehaviour).
 http://arma.sourceforge.net/

 Q-Chem begins on Tue Jun 11 03:31:50 2024  

 Host: 
0

     Scratch files written to /data/scratch/Me3SiH_ICN_vfb_forward20240611033149//
 Jan1824 |scratch|qcdevops|jenkins|workspace|build_RNUM -1
 Processing $rem in /opt/qchem/6.1/config/preferences:
 Processing $rem in /home/ymao/.qchemrc:

 Checking the input file for inconsistencies... 	...done.
 Reading auxiliary files from /opt/qchem/6.1/qcaux (QCAUX)

--------------------------------------------------------------
User input:
--------------------------------------------------------------
$molecule
0 1
--
0 1
H   -1.3553034289  -0.0000930241   0.9664648996
Si  -2.5356824489  -0.0000287250   0.0221300774
C   -2.4232162298  -1.5502718731  -1.0385199742
H   -1.5002998945  -1.5598392918  -1.6405405904
H   -2.4315848151  -2.4620695794  -0.4200447829
H   -3.2758814846  -1.6093902651  -1.7348260346
C   -4.0945972514  -0.0001711935   1.0738535108
H   -4.1405666004  -0.8906294315   1.7206683198
H   -4.9940529883  -0.0001218591   0.4363815958
H   -4.1406024983   0.8901489858   1.7208559087
C   -2.4232944334   1.5504291567  -1.0382141581
H   -3.2759610782   1.6096379283  -1.7345108650
H   -1.5003768531   1.5601648051  -1.6402300675
H   -2.4317143088   2.4621046266  -0.4195595939
--
0 1
I    1.2529846122   0.0000125519   0.2601081051
C    3.1990365395   0.0000549798  -0.2610677547
N    4.3171690258   0.0001708917  -0.5614860777
$end

$rem
JOBTYPE  OPT
GEN_SCFMAN  TRUE
VFB_CTA  FORWARD
METHOD  WB97X-V
BASIS  DEF2-SVPD
UNRESTRICTED  FALSE
MAX_SCF_CYCLES  2000
THRESH  14
SCF_CONVERGENCE  9
MEM_TOTAL  8000
MEM_STATIC  2000
SCF_GUESS  FRAGMO
SYMMETRY  FALSE
SYM_IGNORE  FALSE
SCF_ALGORITHM  DIIS
BASIS_LIN_DEP_THRESH  6
IDERIV  1
SCFMI_MODE  0
XC_GRID  000075000302
NL_GRID  1
FD_MAT_VEC_PROD  FALSE
GEOM_OPT_TOL_GRADIENT  50
GEOM_OPT_TOL_DISPLACEMENT  50
GEOM_OPT_TOL_ENERGY  10
GEOM_OPT_DRIVER  OPTIMIZE
GEOM_OPT_MAX_CYCLES  200
$end

--------------------------------------------------------------
 ----------------------------------------------------------------
             Standard Nuclear Orientation (Angstroms)
    I     Atom           X                Y                Z
 ----------------------------------------------------------------
    1      H      -1.3351488160    -0.0000108346     0.9655126383
    2      Si     -2.5137778510     0.0000010801     0.0189945513
    3      C      -2.3993752876    -1.5503254883    -1.0413264310
    4      H      -1.4753463596    -1.5599549458    -1.6416369619
    5      H      -2.4089043727    -2.4620755239    -0.4227977560
    6      H      -3.2507512397    -1.6094828082    -1.7392050382
    7      C      -4.0746367229    -0.0000339203     1.0678306410
    8      H      -4.1218185960    -0.8904416672     1.7146276470
    9      H      -4.9729109588    -0.0000181931     0.4286949244
   10      H      -4.1218241432     0.8903367596     1.7146783873
   11      C      -2.3994006057     1.5503755568    -1.0412589254
   12      H      -3.2507759254     1.6095454008    -1.7391372704
   13      H      -1.4753701087     1.5600491666    -1.6415662299
   14      H      -2.4089498790     2.4620987064    -0.4226910339
   15      I       1.2744422231    -0.0000041284     0.2639849866
   16      C       3.2214555124    -0.0000350189    -0.2535878418
   17      N       4.3401421587     0.0000386924    -0.5519359960
 ----------------------------------------------------------------
 Molecular Point Group                 C1    NOp =  1
 Largest Abelian Subgroup              C1    NOp =  1
 Nuclear Repulsion Energy =         436.60697946 hartrees
 There are       40 alpha and       40 beta electrons
 Requested basis set is def2-SVPD
 There are 103 shells and 239 basis functions

 Total QAlloc Memory Limit   8000 MB
 Mega-Array Size      1956 MB
 MEM_STATIC part      2000 MB

 A cutoff of  1.0D-14 yielded   4907 shell pairs
 There are     26479 function pairs (     29928 Cartesian)
 Requested basis set is def2-SVPD
 Compound shells will be simplified
 There are 103 shells and 239 basis functions
 A cutoff of  1.0D-14 yielded   4907 shell pairs
 There are     26479 function pairs (     29928 Cartesian)
 Smallest overlap matrix eigenvalue = 1.50E-04

 Scale SEOQF with 1.000000e-01/1.000000e-01/1.000000e-01

 Standard Electronic Orientation quadrupole field applied
 Nucleus-field energy     =     0.0000000202 hartrees
 Attempting to make child job directory: /data/scratch/Me3SiH_ICN_vfb_forward20240611033149//Frg1/
 Attempting to make child job directory: /data/scratch/Me3SiH_ICN_vfb_forward20240611033149//Frg2/
 Creating input file /data/scratch/Me3SiH_ICN_vfb_forward20240611033149/Frg1.input
 using default PutDataFrgm: nothing
 calling putenv with: QCSCRATCH=/data/scratch/Me3SiH_ICN_vfb_forward20240611033149/ 
 Spawning Job For Fragment 0
 Done Job For Fragment 0
 calling putenv with: QCSCRATCH=/data/scratch 
 calling putenv with: QCTHREADS=16 
 Creating input file /data/scratch/Me3SiH_ICN_vfb_forward20240611033149/Frg2.input
 using default PutDataFrgm: nothing
 calling putenv with: QCSCRATCH=/data/scratch/Me3SiH_ICN_vfb_forward20240611033149/ 
 Spawning Job For Fragment 1
 Done Job For Fragment 1
 calling putenv with: QCSCRATCH=/data/scratch 
 calling putenv with: QCTHREADS=16 
 Time for running child jobs:  CPU 1.54 s  wall 22.17 s

 -----------------------------------------------------------------------
  General SCF calculation program by
  Eric Jon Sundstrom, Paul Horn, Yuezhi Mao, Dmitri Zuev, Alec White,
  David Stuck, Shaama M.S., Shane Yost, Joonho Lee, David Small,
  Daniel Levine, Susi Lehtola, Hugh Burton, Evgeny Epifanovsky,
  Bang C. Huynh
 -----------------------------------------------------------------------
Performing Restricted Closed Shell SCFMI
Doing General SCFMI
 Exchange:     0.1670 Hartree-Fock + 1.0000 wB97X-V + LR-HF
 Correlation:  1.0000 wB97X-V
 Using Euler-Maclaurin-Lebedev (75,302) quadrature formula
 Nonlocal Correlation:  VV10 with C = 0.0100 and b = 6.00 and scale = 1.00000
 Grid used for NLC:  SG-1 standard quadrature
performing fock build before subrot guess so that all methods have access
 using 16 threads for integral computing
 -------------------------------------------------------
 OpenMP Integral computing Module                
 Release: version 1.0, May 2013, Q-Chem Inc. Pittsburgh 
 -------------------------------------------------------
Printing subrot_rss_gen Method Specification:
Occupied Subspace Method is 0
Virtual Subspace Method is 0
Energy prior to optimization (guess energy) = -800.014769443130
Begin Timing: Total SCF Calculation
begin iterations for algorithm: DIIS         
the SCF tolerance is set to 1.00e-09
    1    -800.0147694431      2.26e-04     00000 
    2    -800.0169610201      8.23e-05     00000 
    3    -800.0171991767      4.30e-05     00000 
    4    -800.0172484258      2.76e-05     00000 
    5    -800.0172614817      1.47e-05     00000 
    6    -800.0172663187      6.38e-06     00000 
    7    -800.0172673070      2.46e-06     00000 
    8    -800.0172674177      7.01e-07     00000 
    9    -800.0172674288      2.89e-07     00000 
   10    -800.0172674307      1.36e-07     00000 
   11    -800.0172674313      5.07e-08     00000 
   12    -800.0172674314      1.37e-08     00000 
   13    -800.0172674314      4.81e-09     00000 
   14    -800.0172674314      2.13e-09     00000 
   15    -800.0172674314      1.04e-09     00000 
   16    -800.0172674314      4.21e-10     00000 Convergence criterion met
write pseudocanon occs and virts to disk
write pseudocanon orbital energies to disk
Timing for Total SCF: 43.00s (wall), 677.43s (cpu)
SCFMI Energy    -800.0172674314
<S^2>            0.00000
====================================================================
           Variational forward-backward (VFB) CT analysis           
 M. Loipersberger, Y. Mao and M. Head-Gordon, JCTC, 16, 1073 (2020) 
====================================================================
Calculating stabilization due to the forward (1->2) CT
Requested donor fragment: 1
updated OccSS dimension
        21
        19
updated VirtSS dimension
          199
           56
Energy prior to optimization (guess energy) = -800.017267431395
Begin Timing: Total SCF Calculation
begin iterations for algorithm: DIIS         
the SCF tolerance is set to 1.00e-09
    1    -800.0172674314      5.23e-04     00000 
    2    -800.0198697645      7.52e-05     00000 
    3    -800.0200422623      1.88e-05     00000 
    4    -800.0200586673      1.51e-05     00000 
    5    -800.0200645879      4.91e-06     00000 
    6    -800.0200655122      1.67e-06     00000 
    7    -800.0200656329      2.89e-07     00000 
    8    -800.0200656411      1.20e-07     00000 
    9    -800.0200656427      6.19e-08     00000 
   10    -800.0200656433      2.12e-08     00000 
   11    -800.0200656433      9.41e-09     00000 
   12    -800.0200656433      1.81e-09     00000 
   13    -800.0200656433      7.68e-10     00000 Convergence criterion met
write pseudocanon occs and virts to disk
write pseudocanon orbital energies to disk
Timing for Total SCF: 34.00s (wall), 546.44s (cpu)
Energy of the one-side CT state:     -800.0200656433
Stabilization due to one-side CT:    -7.3468 kJ/mol
<S^2>            0.00000
 Total energy in the final basis set =     -800.0200656433
    ==================================================
        The end of Object-Oriented SCFman: SCFMI      
    ==================================================
 
 --------------------------------------------------------------
 
                    Orbital Energies (a.u.)
 --------------------------------------------------------------
 
 Alpha MOs
 -- Occupied --
-66.1429 -14.4379 -10.3526 -10.2811 -10.2804 -10.2804  -7.0035  -5.3976
 -5.0415  -5.0203  -5.0202  -3.7522  -3.7507  -3.7507  -2.0941  -2.0871
 -2.0870  -2.0695  -2.0695  -1.0398  -0.8953  -0.8564  -0.8158  -0.8153
 -0.6255  -0.5972  -0.5439  -0.5321  -0.5318  -0.5122  -0.5121  -0.5009
 -0.4896  -0.4895  -0.4839  -0.4285  -0.4223  -0.4218  -0.3921  -0.3918
 -- Virtual --
  0.0222   0.0580   0.0675   0.0712   0.0765   0.0903   0.0939   0.1047
  0.1137   0.1149   0.1380   0.1435   0.1447   0.1496   0.1575   0.1659
  0.1676   0.1776   0.1872   0.1887   0.1936   0.2015   0.2076   0.2160
  0.2223   0.2288   0.2300   0.2313   0.2715   0.2774   0.2819   0.2824
  0.2933   0.3035   0.3037   0.3144   0.3208   0.3311   0.3388   0.3494
  0.3529   0.3658   0.3777   0.3804   0.3883   0.3896   0.4005   0.4051
  0.4083   0.4124   0.4154   0.4310   0.4332   0.4361   0.4413   0.4442
  0.4575   0.4603   0.4654   0.4667   0.4699   0.4706   0.4860   0.4933
  0.4976   0.5071   0.5188   0.5221   0.5271   0.5276   0.5350   0.5359
  0.5416   0.5441   0.5611   0.5788   0.5813   0.5934   0.5938   0.6000
  0.6030   0.6078   0.6178   0.6306   0.6346   0.6393   0.6517   0.6565
  0.6871   0.6909   0.6967   0.7047   0.7115   0.7234   0.7496   0.7618
  0.7811   0.7890   0.8223   0.8420   0.8634   0.8654   0.8794   0.8879
  0.9008   0.9143   0.9236   0.9477   0.9601   0.9809   1.0027   1.0220
  1.0343   1.0343   1.0562   1.0747   1.0792   1.0817   1.0895   1.0914
  1.1147   1.1605   1.1617   1.1644   1.1826   1.2357   1.2407   1.2640
  1.2678   1.2688   1.2967   1.3149   1.3420   1.3424   1.3567   1.3886
  1.3900   1.4329   1.4455   1.6473   1.6761   1.6928   1.7108   1.7438
  1.7635   1.7833   1.7990   1.8059   1.8148   1.8629   1.8647   1.8963
  1.9015   1.9090   1.9399   2.0117   2.0130   2.0137   2.0202   2.0479
  2.0557   2.0675   2.0897   2.1228   2.1333   2.1498   2.1909   2.2046
  2.2278   2.2362   2.3245   2.4430   2.4702   2.4702   2.5432   2.5444
  2.6012   2.6056   2.6066   2.6192   2.6228   2.6339   2.7343   2.8963
  2.9023   2.9048   2.9810   2.9822   3.1747   3.1788   3.1805   3.2100
  3.2172   3.2351   3.5752  18.9791  19.0441  19.8795  56.6426
 --------------------------------------------------------------
 
          Ground-State Mulliken Net Atomic Charges

     Atom                 Charge (a.u.)
  ----------------------------------------
      1 H                     0.221292
      2 Si                   -0.549666
      3 C                     0.165911
      4 H                    -0.051547
      5 H                    -0.025426
      6 H                    -0.022387
      7 C                     0.252507
      8 H                    -0.008187
      9 H                    -0.000276
     10 H                    -0.008185
     11 C                     0.165911
     12 H                    -0.022386
     13 H                    -0.051547
     14 H                    -0.025426
     15 I                     0.326611
     16 C                    -0.265188
     17 N                    -0.102012
  ----------------------------------------
  Sum of atomic charges =     0.000000

 -----------------------------------------------------------------
                    Cartesian Multipole Moments
 -----------------------------------------------------------------
    Charge (ESU x 10^10)
                -0.0000
    Dipole Moment (Debye)
         X      -5.3415      Y      -0.0001      Z       0.5123
       Tot       5.3660
    Quadrupole Moments (Debye-Ang)
        XX     -89.3281     XY      -0.0004     YY     -72.8308
        XZ       4.0101     YZ       0.0001     ZZ     -73.4164
    Octopole Moments (Debye-Ang^2)
       XXX     -60.8409    XXY      -0.0015    XYY      20.4432
       YYY      -0.0004    XXZ      17.1251    XYZ       0.0001
       YYZ       7.7345    XZZ      18.3996    YZZ       0.0001
       ZZZ      13.2609
    Hexadecapole Moments (Debye-Ang^3)
      XXXX   -3635.5847   XXXY      -0.0080   XXYY    -575.1491
      XYYY       0.0005   YYYY    -355.7982   XXXZ     133.1528
      XXYZ       0.0011   XYYZ      -2.6511   YYYZ       0.0000
      XXZZ    -577.2765   XYZZ      -0.0006   YYZZ    -112.1509
      XZZZ      23.1145   YZZZ      -0.0000   ZZZZ    -311.4628
 -----------------------------------------------------------------
 Calculating analytic gradient of the SCF energy
 Gradient of SCF Energy
            1           2           3           4           5           6
    1   0.0011214   0.0003647  -0.0000443   0.0000608   0.0000082  -0.0000190
    2  -0.0000001   0.0000000  -0.0000120   0.0000493   0.0000134  -0.0000224
    3  -0.0003385   0.0001791  -0.0000522   0.0000096   0.0000205   0.0000010
            7           8           9          10          11          12
    1  -0.0000733   0.0000295  -0.0000209   0.0000295  -0.0000442  -0.0000191
    2  -0.0000001   0.0000002   0.0000000  -0.0000001   0.0000120   0.0000223
    3  -0.0000666   0.0000040   0.0000168   0.0000040  -0.0000523   0.0000011
           13          14          15          16          17
    1   0.0000608   0.0000082  -0.0014468  -0.0000415   0.0000259
    2  -0.0000492  -0.0000135   0.0000017  -0.0000040   0.0000024
    3   0.0000097   0.0000205   0.0002189   0.0000243   0.0000001
 Max gradient component =       1.447E-03
 RMS gradient           =       2.700E-04
 Gradient time:  CPU 118.82 s  wall 7.51 s
 Geometry Optimization Parameters
   NAtoms,    NIC,     NZ,  NCons,   NDum,   NFix, NCnnct, MaxDiis
       17     109       0       0       0       0       0       0


** GEOMETRY OPTIMIZATION IN DELOCALIZED INTERNAL COORDINATES **
   Searching for a Minimum

   Optimization Cycle:   1

                       Coordinates (Angstroms)
     ATOM                X               Y               Z
      1  H        -1.3351488160   -0.0000108346    0.9655126383
      2  Si       -2.5137778510    0.0000010801    0.0189945513
      3  C        -2.3993752876   -1.5503254883   -1.0413264310
      4  H        -1.4753463596   -1.5599549458   -1.6416369619
      5  H        -2.4089043727   -2.4620755239   -0.4227977560
      6  H        -3.2507512397   -1.6094828082   -1.7392050382
      7  C        -4.0746367229   -0.0000339203    1.0678306410
      8  H        -4.1218185960   -0.8904416672    1.7146276470
      9  H        -4.9729109588   -0.0000181931    0.4286949244
     10  H        -4.1218241432    0.8903367596    1.7146783873
     11  C        -2.3994006057    1.5503755568   -1.0412589254
     12  H        -3.2507759254    1.6095454008   -1.7391372704
     13  H        -1.4753701087    1.5600491666   -1.6415662299
     14  H        -2.4089498790    2.4620987064   -0.4226910339
     15  I         1.2744422231   -0.0000041284    0.2639849866
     16  C         3.2214555124   -0.0000350189   -0.2535878418
     17  N         4.3401421587    0.0000386924   -0.5519359960
   Point Group: c1    Number of degrees of freedom:    45


   Energy is   -800.020065643


 Attempting to generate delocalized internal coordinates
 Initial Hessian constructed with Jon Baker's OPTIMIZE code

 45 Hessian modes will be used to form the next step
  Hessian Eigenvalues:
     0.002000    0.003490    0.003490    0.003650    0.019724    0.034532
     0.045174    0.045244    0.054350    0.054350    0.054701    0.055211
     0.055211    0.055448    0.145322    0.146038    0.146865    0.160000
     0.160000    0.160000    0.160000    0.160000    0.160000    0.160000
     0.160000    0.160000    0.160000    0.163607    0.200000    0.200000
     0.200000    0.200000    0.206079    0.206079    0.206774    0.334129
     0.334137    0.334137    0.334673    0.334673    0.334842    0.334842
     0.335120    0.335120    1.292527

 Minimum search - taking simple RFO step
 Searching for Lamda that Minimizes Along All modes
 Value Taken    Lamda =  -0.00011360
 Step Taken.  Stepsize is  0.074768

                             Maximum     Tolerance    Cnvgd?
         Gradient           0.000850      0.000050      NO
         Displacement       0.041418      0.000050      NO
         Energy change     *********      0.000000      NO


 New Cartesian Coordinates Obtained by Inverse Iteration

 Displacement from previous Coordinates is:  0.132268
 ----------------------------------------------------------------
             Standard Nuclear Orientation (Angstroms)
    I     Atom           X                Y                Z
 ----------------------------------------------------------------
    1      H      -1.3407234581    -0.0000213949     0.9643709871
    2      Si     -2.5206884413    -0.0000045900     0.0178496018
    3      C      -2.4081941389    -1.5505695838    -1.0423755096
    4      H      -1.4848126917    -1.5615899169    -1.6435254627
    5      H      -2.4185191693    -2.4623927417    -0.4239680812
    6      H      -3.2600668715    -1.6086372124    -1.7397012381
    7      C      -4.0801173195    -0.0000369660     1.0687844980
    8      H      -4.1268494427    -0.8904770700     1.7155680820
    9      H      -4.9789496913    -0.0000192123     0.4304558739
   10      H      -4.1268512894     0.8903655018     1.7156198098
   11      C      -2.4082099976     1.5506118016    -1.0423021185
   12      H      -3.2600808190     1.6087000526    -1.7396284847
   13      H      -1.4848263569     1.5616730452    -1.6434479841
   14      H      -2.4185503297     2.4624058795    -0.4238521019
   15      I       1.3092162514     0.0000180753     0.2612690692
   16      C       3.2578484578     0.0001620454    -0.2504913233
   17      N       4.3774243359    -0.0001248791    -0.5454453262
 ----------------------------------------------------------------
 Molecular Point Group                 C1    NOp =  1
 Largest Abelian Subgroup              C1    NOp =  1
 Nuclear Repulsion Energy =         435.07533454 hartrees
 There are       40 alpha and       40 beta electrons
 Applying Cartesian multipole field
    Component          Value
    ---------          -----
     (2,0,0)        1.00000E-11
     (0,2,0)        2.00000E-11
     (0,0,2)       -3.00000E-11
 Nucleus-field energy     =     0.0000000205 hartrees
 Requested basis set is def2-SVPD
 There are 103 shells and 239 basis functions
 A cutoff of  1.0D-14 yielded   4907 shell pairs
 There are     26479 function pairs (     29928 Cartesian)
 Requested basis set is def2-SVPD
 Compound shells will be simplified
 There are 103 shells and 239 basis functions
 A cutoff of  1.0D-14 yielded   4907 shell pairs
 There are     26479 function pairs (     29928 Cartesian)
 Smallest overlap matrix eigenvalue = 1.51E-04
 Attempting to make child job directory: /data/scratch/Me3SiH_ICN_vfb_forward20240611033149//Frg1/
 Failed to make child job directory:     /data/scratch/Me3SiH_ICN_vfb_forward20240611033149//Frg1/
 Attempting to make child job directory: /data/scratch/Me3SiH_ICN_vfb_forward20240611033149//Frg2/
 Failed to make child job directory:     /data/scratch/Me3SiH_ICN_vfb_forward20240611033149//Frg2/
 Creating input file /data/scratch/Me3SiH_ICN_vfb_forward20240611033149/Frg1.input
 using default PutDataFrgm: nothing
 calling putenv with: QCSCRATCH=/data/scratch/Me3SiH_ICN_vfb_forward20240611033149/ 
 Spawning Job For Fragment 0
 Done Job For Fragment 0
 calling putenv with: QCSCRATCH=/data/scratch 
 calling putenv with: QCTHREADS=16 
 Creating input file /data/scratch/Me3SiH_ICN_vfb_forward20240611033149/Frg2.input
 using default PutDataFrgm: nothing
 calling putenv with: QCSCRATCH=/data/scratch/Me3SiH_ICN_vfb_forward20240611033149/ 
 Spawning Job For Fragment 1
 Done Job For Fragment 1
 calling putenv with: QCSCRATCH=/data/scratch 
 calling putenv with: QCTHREADS=16 
 Time for running child jobs:  CPU 2.39 s  wall 22.08 s

 -----------------------------------------------------------------------
  General SCF calculation program by
  Eric Jon Sundstrom, Paul Horn, Yuezhi Mao, Dmitri Zuev, Alec White,
  David Stuck, Shaama M.S., Shane Yost, Joonho Lee, David Small,
  Daniel Levine, Susi Lehtola, Hugh Burton, Evgeny Epifanovsky,
  Bang C. Huynh
 -----------------------------------------------------------------------
Performing Restricted Closed Shell SCFMI
Doing General SCFMI
 Exchange:     0.1670 Hartree-Fock + 1.0000 wB97X-V + LR-HF
 Correlation:  1.0000 wB97X-V
 Using Euler-Maclaurin-Lebedev (75,302) quadrature formula
 Nonlocal Correlation:  VV10 with C = 0.0100 and b = 6.00 and scale = 1.00000
 Grid used for NLC:  SG-1 standard quadrature
performing fock build before subrot guess so that all methods have access
Printing subrot_rss_gen Method Specification:
Occupied Subspace Method is 0
Virtual Subspace Method is 0
Energy prior to optimization (guess energy) = -800.015337999947
Begin Timing: Total SCF Calculation
begin iterations for algorithm: DIIS         
the SCF tolerance is set to 1.00e-09
    1    -800.0153379999      2.16e-04     00000 
    2    -800.0173601069      7.88e-05     00000 
    3    -800.0175815259      4.08e-05     00000 
    4    -800.0176271455      2.59e-05     00000 
    5    -800.0176388543      1.40e-05     00000 
    6    -800.0176433008      5.73e-06     00000 
    7    -800.0176441178      2.15e-06     00000 
    8    -800.0176442056      5.78e-07     00000 
    9    -800.0176442134      2.37e-07     00000 
   10    -800.0176442147      1.10e-07     00000 
   11    -800.0176442151      4.05e-08     00000 
   12    -800.0176442152      1.08e-08     00000 
   13    -800.0176442152      3.54e-09     00000 
   14    -800.0176442152      1.45e-09     00000 
   15    -800.0176442152      6.94e-10     00000 Convergence criterion met
write pseudocanon occs and virts to disk
write pseudocanon orbital energies to disk
Timing for Total SCF: 40.00s (wall), 635.28s (cpu)
SCFMI Energy    -800.0176442152
<S^2>            0.00000
====================================================================
           Variational forward-backward (VFB) CT analysis           
 M. Loipersberger, Y. Mao and M. Head-Gordon, JCTC, 16, 1073 (2020) 
====================================================================
Calculating stabilization due to the forward (1->2) CT
Requested donor fragment: 1
updated OccSS dimension
        21
        19
updated VirtSS dimension
          199
           56
Energy prior to optimization (guess energy) = -800.017644215184
Begin Timing: Total SCF Calculation
begin iterations for algorithm: DIIS         
the SCF tolerance is set to 1.00e-09
    1    -800.0176442152      4.95e-04     00000 
    2    -800.0199761128      6.84e-05     00000 
    3    -800.0201288170      1.71e-05     00000 
    4    -800.0201431220      1.38e-05     00000 
    5    -800.0201481307      4.55e-06     00000 
    6    -800.0201489280      1.54e-06     00000 
    7    -800.0201490309      2.63e-07     00000 
    8    -800.0201490377      1.08e-07     00000 
    9    -800.0201490390      5.42e-08     00000 
   10    -800.0201490394      1.85e-08     00000 
   11    -800.0201490394      8.16e-09     00000 
   12    -800.0201490394      1.53e-09     00000 
   13    -800.0201490394      6.21e-10     00000 Convergence criterion met
write pseudocanon occs and virts to disk
write pseudocanon orbital energies to disk
Timing for Total SCF: 35.00s (wall), 538.17s (cpu)
Energy of the one-side CT state:     -800.0201490394
Stabilization due to one-side CT:    -6.5765 kJ/mol
<S^2>            0.00000
 Total energy in the final basis set =     -800.0201490394
    ==================================================
        The end of Object-Oriented SCFman: SCFMI      
    ==================================================
 
 --------------------------------------------------------------
 
                    Orbital Energies (a.u.)
 --------------------------------------------------------------
 
 Alpha MOs
 -- Occupied --
-66.1424 -14.4385 -10.3534 -10.2807 -10.2802 -10.2802  -7.0040  -5.3970
 -5.0419  -5.0208  -5.0207  -3.7516  -3.7502  -3.7502  -2.0945  -2.0875
 -2.0874  -2.0700  -2.0700  -1.0404  -0.8957  -0.8561  -0.8155  -0.8151
 -0.6241  -0.5979  -0.5437  -0.5318  -0.5315  -0.5118  -0.5118  -0.5006
 -0.4901  -0.4900  -0.4842  -0.4280  -0.4219  -0.4215  -0.3925  -0.3922
 -- Virtual --
  0.0210   0.0583   0.0675   0.0710   0.0763   0.0904   0.0938   0.1045
  0.1135   0.1147   0.1381   0.1436   0.1448   0.1495   0.1575   0.1660
  0.1674   0.1772   0.1869   0.1888   0.1937   0.2017   0.2071   0.2159
  0.2220   0.2280   0.2289   0.2311   0.2706   0.2773   0.2813   0.2825
  0.2932   0.3027   0.3041   0.3141   0.3210   0.3315   0.3387   0.3503
  0.3527   0.3653   0.3773   0.3809   0.3879   0.3895   0.4009   0.4047
  0.4081   0.4125   0.4156   0.4311   0.4330   0.4361   0.4418   0.4434
  0.4581   0.4593   0.4652   0.4667   0.4701   0.4706   0.4853   0.4937
  0.4969   0.5080   0.5191   0.5217   0.5254   0.5274   0.5346   0.5359
  0.5419   0.5443   0.5598   0.5783   0.5808   0.5933   0.5942   0.5988
  0.6030   0.6080   0.6186   0.6303   0.6334   0.6395   0.6505   0.6555
  0.6859   0.6903   0.6953   0.7033   0.7094   0.7225   0.7478   0.7623
  0.7785   0.7893   0.8185   0.8409   0.8620   0.8632   0.8783   0.8871
  0.9020   0.9134   0.9222   0.9477   0.9603   0.9804   1.0003   1.0207
  1.0343   1.0346   1.0542   1.0735   1.0790   1.0813   1.0892   1.0909
  1.1158   1.1602   1.1611   1.1644   1.1823   1.2320   1.2409   1.2636
  1.2678   1.2681   1.2955   1.3148   1.3412   1.3421   1.3554   1.3875
  1.3883   1.4319   1.4445   1.6465   1.6760   1.6931   1.7105   1.7440
  1.7633   1.7836   1.7993   1.8058   1.8148   1.8622   1.8641   1.8957
  1.9008   1.9094   1.9404   2.0120   2.0131   2.0138   2.0201   2.0483
  2.0559   2.0670   2.0897   2.1227   2.1336   2.1495   2.1911   2.2048
  2.2278   2.2364   2.3242   2.4431   2.4705   2.4706   2.5426   2.5437
  2.6015   2.6059   2.6067   2.6196   2.6230   2.6340   2.7332   2.8964
  2.9024   2.9049   2.9805   2.9816   3.1746   3.1790   3.1805   3.2103
  3.2177   3.2352   3.5743  18.9706  19.0314  19.8699  56.6338
 --------------------------------------------------------------
 
          Ground-State Mulliken Net Atomic Charges

     Atom                 Charge (a.u.)
  ----------------------------------------
      1 H                     0.232254
      2 Si                   -0.557090
      3 C                     0.162877
      4 H                    -0.051155
      5 H                    -0.025881
      6 H                    -0.022392
      7 C                     0.253503
      8 H                    -0.009332
      9 H                    -0.000170
     10 H                    -0.009334
     11 C                     0.162873
     12 H                    -0.022390
     13 H                    -0.051153
     14 H                    -0.025881
     15 I                     0.329039
     16 C                    -0.264281
     17 N                    -0.101487
  ----------------------------------------
  Sum of atomic charges =     0.000000

 -----------------------------------------------------------------
                    Cartesian Multipole Moments
 -----------------------------------------------------------------
    Charge (ESU x 10^10)
                 0.0000
    Dipole Moment (Debye)
         X      -5.2985      Y       0.0002      Z       0.4981
       Tot       5.3219
    Quadrupole Moments (Debye-Ang)
        XX     -89.6062     XY       0.0013     YY     -72.8469
        XZ       4.0076     YZ      -0.0002     ZZ     -73.4311
    Octopole Moments (Debye-Ang^2)
       XXX     -65.7667    XXY       0.0052    XYY      19.4460
       YYY      -0.0022    XXZ      17.1262    XYZ      -0.0008
       YYZ       7.7966    XZZ      17.4760    YZZ      -0.0005
       ZZZ      13.3706
    Hexadecapole Moments (Debye-Ang^3)
      XXXX   -3693.7575   XXXY       0.0223   XXYY    -582.2306
      XYYY      -0.0013   YYYY    -356.0003   XXXZ     133.1491
      XXYZ      -0.0034   XYYZ      -3.0751   YYYZ      -0.0017
      XXZZ    -584.2803   XYZZ      -0.0007   YYZZ    -112.1999
      XZZZ      22.0431   YZZZ      -0.0018   ZZZZ    -311.3660
 -----------------------------------------------------------------
 Calculating analytic gradient of the SCF energy
 Gradient of SCF Energy
            1           2           3           4           5           6
    1   0.0009140  -0.0003317   0.0000387  -0.0000183   0.0000097   0.0000055
    2   0.0000004  -0.0000001  -0.0000216   0.0000198  -0.0000105   0.0000121
    3   0.0000951  -0.0003573  -0.0000071   0.0000170   0.0000016   0.0000288
            7           8           9          10          11          12
    1   0.0000457   0.0000049   0.0000375   0.0000049   0.0000387   0.0000055
    2   0.0000000  -0.0000020   0.0000000   0.0000020   0.0000217  -0.0000121
    3   0.0000370   0.0000065  -0.0000053   0.0000065  -0.0000071   0.0000287
           13          14          15          16          17
    1  -0.0000183   0.0000097  -0.0011784   0.0003831   0.0000489
    2  -0.0000198   0.0000106  -0.0000068   0.0000159  -0.0000095
    3   0.0000168   0.0000016   0.0001941  -0.0000434  -0.0000134
 Max gradient component =       1.178E-03
 RMS gradient           =       2.290E-04
 Gradient time:  CPU 117.77 s  wall 7.54 s
 Geometry Optimization Parameters
   NAtoms,    NIC,     NZ,  NCons,   NDum,   NFix, NCnnct, MaxDiis
       17     109       0       0       0       0       0       0

 Cartesian Hessian Update
 Hessian updated using BFGS update


** GEOMETRY OPTIMIZATION IN DELOCALIZED INTERNAL COORDINATES **
   Searching for a Minimum

   Optimization Cycle:   2

                       Coordinates (Angstroms)
     ATOM                X               Y               Z
      1  H        -1.3407234581   -0.0000213949    0.9643709871
      2  Si       -2.5206884413   -0.0000045900    0.0178496018
      3  C        -2.4081941389   -1.5505695838   -1.0423755096
      4  H        -1.4848126917   -1.5615899169   -1.6435254627
      5  H        -2.4185191693   -2.4623927417   -0.4239680812
      6  H        -3.2600668715   -1.6086372124   -1.7397012381
      7  C        -4.0801173195   -0.0000369660    1.0687844980
      8  H        -4.1268494427   -0.8904770700    1.7155680820
      9  H        -4.9789496913   -0.0000192123    0.4304558739
     10  H        -4.1268512894    0.8903655018    1.7156198098
     11  C        -2.4082099976    1.5506118016   -1.0423021185
     12  H        -3.2600808190    1.6087000526   -1.7396284847
     13  H        -1.4848263569    1.5616730452   -1.6434479841
     14  H        -2.4185503297    2.4624058795   -0.4238521019
     15  I         1.3092162514    0.0000180753    0.2612690692
     16  C         3.2578484578    0.0001620454   -0.2504913233
     17  N         4.3774243359   -0.0001248791   -0.5454453262
   Point Group: c1    Number of degrees of freedom:    45


   Energy is   -800.020149039

 Hessian updated using BFGS update

 34 Hessian modes will be used to form the next step
  Hessian Eigenvalues:
     0.002000    0.003474    0.003490    0.003650    0.009243    0.034673
     0.045244    0.045509    0.054350    0.054380    0.054724    0.055211
     0.055215    0.146038    0.146849    0.147184    0.159822    0.160647
     0.172515    0.199961    0.201101    0.206079    0.206084    0.206877
     0.334131    0.334137    0.334191    0.334673    0.334814    0.334842
     0.334869    0.335120    0.335121    1.292534

 Minimum search - taking simple RFO step
 Searching for Lamda that Minimizes Along All modes
 Value Taken    Lamda =  -0.00006926
 Step Taken.  Stepsize is  0.086189

                             Maximum     Tolerance    Cnvgd?
         Gradient           0.000630      0.000050      NO
         Displacement       0.046984      0.000050      NO
         Energy change     -0.000083      0.000000      NO


 New Cartesian Coordinates Obtained by Inverse Iteration

 Displacement from previous Coordinates is:  0.128538
 ----------------------------------------------------------------
             Standard Nuclear Orientation (Angstroms)
    I     Atom           X                Y                Z
 ----------------------------------------------------------------
    1      H      -1.3488283667     0.0000127943     0.9662302055
    2      Si     -2.5271015364     0.0000188501     0.0202148869
    3      C      -2.4145793548    -1.5502607369    -1.0406092136
    4      H      -1.4893266897    -1.5634027297    -1.6389550830
    5      H      -2.4289850778    -2.4622542115    -0.4225868778
    6      H      -3.2643240926    -1.6063481981    -1.7407964597
    7      C      -4.0892323305    -0.0000037138     1.0675981888
    8      H      -4.1374703292    -0.8904201167     1.7142782262
    9      H      -4.9868897771     0.0000050294     0.4274779811
   10      H      -4.1374749494     0.8903900047     1.7143090310
   11      C      -2.4145949720     1.5503281057    -1.0405657017
   12      H      -3.2643382783     1.6064233536    -1.7407542236
   13      H      -1.4893399451     1.5634981838    -1.6389067550
   14      H      -2.4290144539     2.4623041880    -0.4225181016
   15      I       1.3455922204    -0.0001451800     0.2560232689
   16      C       3.2909727106    -0.0013113504    -0.2559939347
   17      N       4.4119842505     0.0012285615    -0.5452651461
 ----------------------------------------------------------------
 Molecular Point Group                 C1    NOp =  1
 Largest Abelian Subgroup              C1    NOp =  1
 Nuclear Repulsion Energy =         433.69367312 hartrees
 There are       40 alpha and       40 beta electrons
 Applying Cartesian multipole field
    Component          Value
    ---------          -----
     (2,0,0)        1.00000E-11
     (0,2,0)        2.00000E-11
     (0,0,2)       -3.00000E-11
 Nucleus-field energy     =     0.0000000208 hartrees
 Requested basis set is def2-SVPD
 There are 103 shells and 239 basis functions
 A cutoff of  1.0D-14 yielded   4902 shell pairs
 There are     26452 function pairs (     29896 Cartesian)
 Requested basis set is def2-SVPD
 Compound shells will be simplified
 There are 103 shells and 239 basis functions
 A cutoff of  1.0D-14 yielded   4902 shell pairs
 There are     26452 function pairs (     29896 Cartesian)
 Smallest overlap matrix eigenvalue = 1.52E-04
 Attempting to make child job directory: /data/scratch/Me3SiH_ICN_vfb_forward20240611033149//Frg1/
 Failed to make child job directory:     /data/scratch/Me3SiH_ICN_vfb_forward20240611033149//Frg1/
 Attempting to make child job directory: /data/scratch/Me3SiH_ICN_vfb_forward20240611033149//Frg2/
 Failed to make child job directory:     /data/scratch/Me3SiH_ICN_vfb_forward20240611033149//Frg2/
 Creating input file /data/scratch/Me3SiH_ICN_vfb_forward20240611033149/Frg1.input
 using default PutDataFrgm: nothing
 calling putenv with: QCSCRATCH=/data/scratch/Me3SiH_ICN_vfb_forward20240611033149/ 
 Spawning Job For Fragment 0
 Done Job For Fragment 0
 calling putenv with: QCSCRATCH=/data/scratch 
 calling putenv with: QCTHREADS=16 
 Creating input file /data/scratch/Me3SiH_ICN_vfb_forward20240611033149/Frg2.input
 using default PutDataFrgm: nothing
 calling putenv with: QCSCRATCH=/data/scratch/Me3SiH_ICN_vfb_forward20240611033149/ 
 Spawning Job For Fragment 1
 Done Job For Fragment 1
 calling putenv with: QCSCRATCH=/data/scratch 
 calling putenv with: QCTHREADS=16 
 Time for running child jobs:  CPU 2.26 s  wall 22.25 s

 -----------------------------------------------------------------------
  General SCF calculation program by
  Eric Jon Sundstrom, Paul Horn, Yuezhi Mao, Dmitri Zuev, Alec White,
  David Stuck, Shaama M.S., Shane Yost, Joonho Lee, David Small,
  Daniel Levine, Susi Lehtola, Hugh Burton, Evgeny Epifanovsky,
  Bang C. Huynh
 -----------------------------------------------------------------------
Performing Restricted Closed Shell SCFMI
Doing General SCFMI
 Exchange:     0.1670 Hartree-Fock + 1.0000 wB97X-V + LR-HF
 Correlation:  1.0000 wB97X-V
 Using Euler-Maclaurin-Lebedev (75,302) quadrature formula
 Nonlocal Correlation:  VV10 with C = 0.0100 and b = 6.00 and scale = 1.00000
 Grid used for NLC:  SG-1 standard quadrature
performing fock build before subrot guess so that all methods have access
Printing subrot_rss_gen Method Specification:
Occupied Subspace Method is 0
Virtual Subspace Method is 0
Energy prior to optimization (guess energy) = -800.015892240523
Begin Timing: Total SCF Calculation
begin iterations for algorithm: DIIS         
the SCF tolerance is set to 1.00e-09
    1    -800.0158922405      2.04e-04     00000 
    2    -800.0177374828      7.52e-05     00000 
    3    -800.0179409587      3.85e-05     00000 
    4    -800.0179828096      2.41e-05     00000 
    5    -800.0179930586      1.32e-05     00000 
    6    -800.0179970440      5.13e-06     00000 
    7    -800.0179977129      1.87e-06     00000 
    8    -800.0179977824      4.72e-07     00000 
    9    -800.0179977878      1.92e-07     00000 
   10    -800.0179977887      8.80e-08     00000 
   11    -800.0179977889      3.21e-08     00000 
   12    -800.0179977890      8.61e-09     00000 
   13    -800.0179977890      2.69e-09     00000 
   14    -800.0179977890      1.02e-09     00000 
   15    -800.0179977890      4.71e-10     00000 Convergence criterion met
write pseudocanon occs and virts to disk
write pseudocanon orbital energies to disk
Timing for Total SCF: 39.00s (wall), 631.09s (cpu)
SCFMI Energy    -800.0179977890
<S^2>            0.00000
====================================================================
           Variational forward-backward (VFB) CT analysis           
 M. Loipersberger, Y. Mao and M. Head-Gordon, JCTC, 16, 1073 (2020) 
====================================================================
Calculating stabilization due to the forward (1->2) CT
Requested donor fragment: 1
updated OccSS dimension
        21
        19
updated VirtSS dimension
          199
           56
Energy prior to optimization (guess energy) = -800.017997788958
Begin Timing: Total SCF Calculation
begin iterations for algorithm: DIIS         
the SCF tolerance is set to 1.00e-09
    1    -800.0179977890      4.64e-04     00000 
    2    -800.0200441355      6.11e-05     00000 
    3    -800.0201751560      1.52e-05     00000 
    4    -800.0201871490      1.24e-05     00000 
    5    -800.0201912094      4.15e-06     00000 
    6    -800.0201918683      1.40e-06     00000 
    7    -800.0201919523      2.36e-07     00000 
    8    -800.0201919577      9.47e-08     00000 
    9    -800.0201919587      4.63e-08     00000 
   10    -800.0201919590      1.57e-08     00000 
   11    -800.0201919590      6.92e-09     00000 
   12    -800.0201919590      1.27e-09     00000 
   13    -800.0201919590      4.90e-10     00000 Convergence criterion met
write pseudocanon occs and virts to disk
write pseudocanon orbital energies to disk
Timing for Total SCF: 35.00s (wall), 539.73s (cpu)
Energy of the one-side CT state:     -800.0201919590
Stabilization due to one-side CT:    -5.7609 kJ/mol
<S^2>            0.00000
 Total energy in the final basis set =     -800.0201919590
    ==================================================
        The end of Object-Oriented SCFman: SCFMI      
    ==================================================
 
 --------------------------------------------------------------
 
                    Orbital Energies (a.u.)
 --------------------------------------------------------------
 
 Alpha MOs
 -- Occupied --
-66.1416 -14.4391 -10.3542 -10.2803 -10.2798 -10.2798  -7.0045  -5.3963
 -5.0424  -5.0213  -5.0213  -3.7509  -3.7495  -3.7495  -2.0950  -2.0880
 -2.0880  -2.0706  -2.0706  -1.0410  -0.8966  -0.8556  -0.8150  -0.8147
 -0.6230  -0.5987  -0.5434  -0.5314  -0.5311  -0.5114  -0.5113  -0.5002
 -0.4909  -0.4908  -0.4847  -0.4277  -0.4214  -0.4210  -0.3929  -0.3926
 -- Virtual --
  0.0205   0.0585   0.0676   0.0708   0.0761   0.0904   0.0936   0.1041
  0.1135   0.1145   0.1382   0.1437   0.1449   0.1493   0.1574   0.1664
  0.1674   0.1770   0.1868   0.1890   0.1941   0.2020   0.2068   0.2159
  0.2217   0.2271   0.2279   0.2309   0.2695   0.2772   0.2810   0.2828
  0.2932   0.3019   0.3045   0.3138   0.3213   0.3318   0.3387   0.3511
  0.3523   0.3645   0.3769   0.3816   0.3873   0.3900   0.4014   0.4045
  0.4080   0.4127   0.4159   0.4313   0.4328   0.4362   0.4423   0.4429
  0.4584   0.4589   0.4654   0.4667   0.4704   0.4706   0.4847   0.4939
  0.4962   0.5086   0.5195   0.5214   0.5238   0.5272   0.5345   0.5359
  0.5423   0.5445   0.5584   0.5777   0.5803   0.5934   0.5947   0.5980
  0.6031   0.6082   0.6193   0.6303   0.6321   0.6397   0.6494   0.6549
  0.6847   0.6896   0.6940   0.7020   0.7068   0.7221   0.7465   0.7630
  0.7761   0.7900   0.8141   0.8404   0.8605   0.8618   0.8779   0.8865
  0.9030   0.9126   0.9212   0.9480   0.9605   0.9801   0.9978   1.0193
  1.0344   1.0348   1.0523   1.0727   1.0789   1.0809   1.0892   1.0906
  1.1168   1.1601   1.1605   1.1644   1.1820   1.2284   1.2411   1.2632
  1.2665   1.2687   1.2944   1.3146   1.3404   1.3431   1.3537   1.3848
  1.3883   1.4306   1.4439   1.6455   1.6762   1.6935   1.7107   1.7444
  1.7634   1.7840   1.7999   1.8059   1.8150   1.8613   1.8633   1.8947
  1.8997   1.9097   1.9406   2.0125   2.0135   2.0139   2.0201   2.0485
  2.0558   2.0669   2.0898   2.1226   2.1339   2.1495   2.1916   2.2050
  2.2279   2.2367   2.3251   2.4438   2.4710   2.4711   2.5419   2.5431
  2.6017   2.6063   2.6068   2.6199   2.6232   2.6345   2.7335   2.8964
  2.9024   2.9051   2.9800   2.9813   3.1745   3.1794   3.1805   3.2107
  3.2181   3.2355   3.5733  18.9629  19.0213  19.8663  56.6246
 --------------------------------------------------------------
 
          Ground-State Mulliken Net Atomic Charges

     Atom                 Charge (a.u.)
  ----------------------------------------
      1 H                     0.246546
      2 Si                   -0.568171
      3 C                     0.159694
      4 H                    -0.050763
      5 H                    -0.026375
      6 H                    -0.022247
      7 C                     0.254571
      8 H                    -0.010744
      9 H                     0.000110
     10 H                    -0.010719
     11 C                     0.159719
     12 H                    -0.022247
     13 H                    -0.050777
     14 H                    -0.026374
     15 I                     0.329849
     16 C                    -0.261641
     17 N                    -0.100432
  ----------------------------------------
  Sum of atomic charges =     0.000000

 -----------------------------------------------------------------
                    Cartesian Multipole Moments
 -----------------------------------------------------------------
    Charge (ESU x 10^10)
                 0.0000
    Dipole Moment (Debye)
         X      -5.2342      Y      -0.0020      Z       0.4965
       Tot       5.2577
    Quadrupole Moments (Debye-Ang)
        XX     -89.8835     XY      -0.0125     YY     -72.8701
        XZ       4.0073     YZ       0.0021     ZZ     -73.4512
    Octopole Moments (Debye-Ang^2)
       XXX     -70.3828    XXY      -0.0510    XYY      18.4716
       YYY       0.0106    XXZ      17.3610    XYZ       0.0068
       YYZ       7.9604    XZZ      16.5125    YZZ       0.0033
       ZZZ      13.7581
    Hexadecapole Moments (Debye-Ang^3)
      XXXX   -3751.3505   XXXY      -0.2462   XXYY    -589.2759
      XYYY      -0.0026   YYYY    -356.1586   XXXZ     135.3659
      XXYZ       0.0327   XYYZ      -2.9480   YYYZ       0.0104
      XXZZ    -591.3395   XYZZ      -0.0052   YYZZ    -112.1343
      XZZZ      22.8193   YZZZ       0.0106   ZZZZ    -310.7068
 -----------------------------------------------------------------
 Calculating analytic gradient of the SCF energy
 Gradient of SCF Energy
            1           2           3           4           5           6
    1   0.0003438  -0.0001910   0.0000648  -0.0000133   0.0000018  -0.0000200
    2  -0.0000032   0.0000008   0.0000096   0.0000008   0.0000176   0.0000123
    3  -0.0001082  -0.0001105   0.0000736  -0.0000109  -0.0000070  -0.0000012
            7           8           9          10          11          12
    1   0.0000564   0.0000025  -0.0000201   0.0000026   0.0000655  -0.0000206
    2  -0.0000002   0.0000061   0.0000000  -0.0000062  -0.0000102  -0.0000127
    3   0.0000805  -0.0000145  -0.0000133  -0.0000146   0.0000735  -0.0000009
           13          14          15          16          17
    1  -0.0000136   0.0000021   0.0000733  -0.0003418   0.0000074
    2  -0.0000009  -0.0000179   0.0000585  -0.0001376   0.0000831
    3  -0.0000098  -0.0000069   0.0000116  -0.0001040   0.0001627
 Max gradient component =       3.438E-04
 RMS gradient           =       8.858E-05
 Gradient time:  CPU 117.21 s  wall 7.51 s
 Geometry Optimization Parameters
   NAtoms,    NIC,     NZ,  NCons,   NDum,   NFix, NCnnct, MaxDiis
       17     109       0       0       0       0       0       0

 Cartesian Hessian Update
 Hessian updated using BFGS update


** GEOMETRY OPTIMIZATION IN DELOCALIZED INTERNAL COORDINATES **
   Searching for a Minimum

   Optimization Cycle:   3

                       Coordinates (Angstroms)
     ATOM                X               Y               Z
      1  H        -1.3488283667    0.0000127943    0.9662302055
      2  Si       -2.5271015364    0.0000188501    0.0202148869
      3  C        -2.4145793548   -1.5502607369   -1.0406092136
      4  H        -1.4893266897   -1.5634027297   -1.6389550830
      5  H        -2.4289850778   -2.4622542115   -0.4225868778
      6  H        -3.2643240926   -1.6063481981   -1.7407964597
      7  C        -4.0892323305   -0.0000037138    1.0675981888
      8  H        -4.1374703292   -0.8904201167    1.7142782262
      9  H        -4.9868897771    0.0000050294    0.4274779811
     10  H        -4.1374749494    0.8903900047    1.7143090310
     11  C        -2.4145949720    1.5503281057   -1.0405657017
     12  H        -3.2643382783    1.6064233536   -1.7407542236
     13  H        -1.4893399451    1.5634981838   -1.6389067550
     14  H        -2.4290144539    2.4623041880   -0.4225181016
     15  I         1.3455922204   -0.0001451800    0.2560232689
     16  C         3.2909727106   -0.0013113504   -0.2559939347
     17  N         4.4119842505    0.0012285615   -0.5452651461
   Point Group: c1    Number of degrees of freedom:    45


   Energy is   -800.020191959

 Hessian updated using BFGS update

 36 Hessian modes will be used to form the next step
  Hessian Eigenvalues:
     0.002000    0.003355    0.003650    0.005250    0.034641    0.045244
     0.045495    0.054350    0.054388    0.054726    0.055211    0.055215
     0.055448    0.146038    0.146830    0.150896    0.159911    0.160108
     0.161911    0.171477    0.199836    0.200014    0.206062    0.206079
     0.206805    0.257886    0.334133    0.334137    0.334317    0.334673
     0.334807    0.334842    0.334970    0.335120    0.335185    1.292650

 Minimum search - taking simple RFO step
 Searching for Lamda that Minimizes Along All modes
 Value Taken    Lamda =  -0.00003261
 Step Taken.  Stepsize is  0.070218

                             Maximum     Tolerance    Cnvgd?
         Gradient           0.001119      0.000050      NO
         Displacement       0.036941      0.000050      NO
         Energy change     -0.000043      0.000000      NO


 New Cartesian Coordinates Obtained by Inverse Iteration

 Displacement from previous Coordinates is:  0.114797
 ----------------------------------------------------------------
             Standard Nuclear Orientation (Angstroms)
    I     Atom           X                Y                Z
 ----------------------------------------------------------------
    1      H      -1.3571963077    -0.0002118777     0.9723267355
    2      Si     -2.5321913853    -0.0001275503     0.0241412421
    3      C      -2.4174143703    -1.5501064421    -1.0373747805
    4      H      -1.4887613812    -1.5651625296    -1.6304786076
    5      H      -2.4373405907    -2.4624444586    -0.4199720176
    6      H      -3.2632239261    -1.6041139877    -1.7424845113
    7      C      -4.0992969988    -0.0001882502     1.0644337587
    8      H      -4.1504984595    -0.8906109789     1.7109156721
    9      H      -4.9941795521    -0.0001308911     0.4204530200
   10      H      -4.1504800703     0.8901399243     1.7110478469
   11      C      -2.4173885031     1.5500093717    -1.0371508140
   12      H      -3.2631927586     1.6041353041    -1.7422570297
   13      H      -1.4887355771     1.5651385728    -1.6302556604
   14      H      -2.4373037253     2.4622593254    -0.4196171875
   15      I       1.3721081247     0.0008285726     0.2537255186
   16      C       3.3193580949     0.0070917215    -0.2506797284
   17      N       4.4327864145    -0.0064429923    -0.5675931655
 ----------------------------------------------------------------
 Molecular Point Group                 C1    NOp =  1
 Largest Abelian Subgroup              C1    NOp =  1
 Nuclear Repulsion Energy =         432.63802358 hartrees
 There are       40 alpha and       40 beta electrons
 Applying Cartesian multipole field
    Component          Value
    ---------          -----
     (2,0,0)        1.00000E-11
     (0,2,0)        2.00000E-11
     (0,0,2)       -3.00000E-11
 Nucleus-field energy     =     0.0000000210 hartrees
 Requested basis set is def2-SVPD
 There are 103 shells and 239 basis functions
 A cutoff of  1.0D-14 yielded   4897 shell pairs
 There are     26421 function pairs (     29863 Cartesian)
 Requested basis set is def2-SVPD
 Compound shells will be simplified
 There are 103 shells and 239 basis functions
 A cutoff of  1.0D-14 yielded   4897 shell pairs
 There are     26421 function pairs (     29863 Cartesian)
 Smallest overlap matrix eigenvalue = 1.53E-04
 Attempting to make child job directory: /data/scratch/Me3SiH_ICN_vfb_forward20240611033149//Frg1/
 Failed to make child job directory:     /data/scratch/Me3SiH_ICN_vfb_forward20240611033149//Frg1/
 Attempting to make child job directory: /data/scratch/Me3SiH_ICN_vfb_forward20240611033149//Frg2/
 Failed to make child job directory:     /data/scratch/Me3SiH_ICN_vfb_forward20240611033149//Frg2/
 Creating input file /data/scratch/Me3SiH_ICN_vfb_forward20240611033149/Frg1.input
 using default PutDataFrgm: nothing
 calling putenv with: QCSCRATCH=/data/scratch/Me3SiH_ICN_vfb_forward20240611033149/ 
 Spawning Job For Fragment 0
 Done Job For Fragment 0
 calling putenv with: QCSCRATCH=/data/scratch 
 calling putenv with: QCTHREADS=16 
 Creating input file /data/scratch/Me3SiH_ICN_vfb_forward20240611033149/Frg2.input
 using default PutDataFrgm: nothing
 calling putenv with: QCSCRATCH=/data/scratch/Me3SiH_ICN_vfb_forward20240611033149/ 
 Spawning Job For Fragment 1
 Done Job For Fragment 1
 calling putenv with: QCSCRATCH=/data/scratch 
 calling putenv with: QCTHREADS=16 
 Time for running child jobs:  CPU 2.37 s  wall 21.85 s

 -----------------------------------------------------------------------
  General SCF calculation program by
  Eric Jon Sundstrom, Paul Horn, Yuezhi Mao, Dmitri Zuev, Alec White,
  David Stuck, Shaama M.S., Shane Yost, Joonho Lee, David Small,
  Daniel Levine, Susi Lehtola, Hugh Burton, Evgeny Epifanovsky,
  Bang C. Huynh
 -----------------------------------------------------------------------
Performing Restricted Closed Shell SCFMI
Doing General SCFMI
 Exchange:     0.1670 Hartree-Fock + 1.0000 wB97X-V + LR-HF
 Correlation:  1.0000 wB97X-V
 Using Euler-Maclaurin-Lebedev (75,302) quadrature formula
 Nonlocal Correlation:  VV10 with C = 0.0100 and b = 6.00 and scale = 1.00000
 Grid used for NLC:  SG-1 standard quadrature
performing fock build before subrot guess so that all methods have access
Printing subrot_rss_gen Method Specification:
Occupied Subspace Method is 0
Virtual Subspace Method is 0
Energy prior to optimization (guess energy) = -800.016224158730
Begin Timing: Total SCF Calculation
begin iterations for algorithm: DIIS         
the SCF tolerance is set to 1.00e-09
    1    -800.0162241587      1.97e-04     00000 
    2    -800.0179475571      7.29e-05     00000 
    3    -800.0181389239      3.72e-05     00000 
    4    -800.0181785439      2.30e-05     00000 
    5    -800.0181879991      1.28e-05     00000 
    6    -800.0181916911      4.76e-06     00000 
    7    -800.0181922691      1.70e-06     00000 
    8    -800.0181923277      4.05e-07     00000 
    9    -800.0181923320      1.63e-07     00000 
   10    -800.0181923326      7.37e-08     00000 
   11    -800.0181923328      2.68e-08     00000 
   12    -800.0181923328      7.30e-09     00000 
   13    -800.0181923328      2.22e-09     00000 
   14    -800.0181923328      7.96e-10     00000 Convergence criterion met
write pseudocanon occs and virts to disk
write pseudocanon orbital energies to disk
Timing for Total SCF: 38.00s (wall), 588.11s (cpu)
SCFMI Energy    -800.0181923328
<S^2>            0.00000
====================================================================
           Variational forward-backward (VFB) CT analysis           
 M. Loipersberger, Y. Mao and M. Head-Gordon, JCTC, 16, 1073 (2020) 
====================================================================
Calculating stabilization due to the forward (1->2) CT
Requested donor fragment: 1
updated OccSS dimension
        21
        19
updated VirtSS dimension
          199
           56
Energy prior to optimization (guess energy) = -800.018192332791
Begin Timing: Total SCF Calculation
begin iterations for algorithm: DIIS         
the SCF tolerance is set to 1.00e-09
    1    -800.0181923328      4.40e-04     00000 
    2    -800.0200447338      5.59e-05     00000 
    3    -800.0201614646      1.39e-05     00000 
    4    -800.0201719814      1.14e-05     00000 
    5    -800.0201754465      3.87e-06     00000 
    6    -800.0201760169      1.29e-06     00000 
    7    -800.0201760888      2.17e-07     00000 
    8    -800.0201760934      8.53e-08     00000 
    9    -800.0201760942      4.07e-08     00000 
   10    -800.0201760944      1.39e-08     00000 
   11    -800.0201760944      6.10e-09     00000 
   12    -800.0201760944      1.11e-09     00000 
   13    -800.0201760944      4.13e-10     00000 Convergence criterion met
write pseudocanon occs and virts to disk
write pseudocanon orbital energies to disk
Timing for Total SCF: 34.00s (wall), 539.55s (cpu)
Energy of the one-side CT state:     -800.0201760944
Stabilization due to one-side CT:    -5.2084 kJ/mol
<S^2>            0.00000
 Total energy in the final basis set =     -800.0201760944
    ==================================================
        The end of Object-Oriented SCFman: SCFMI      
    ==================================================
 
 --------------------------------------------------------------
 
                    Orbital Energies (a.u.)
 --------------------------------------------------------------
 
 Alpha MOs
 -- Occupied --
-66.1411 -14.4396 -10.3548 -10.2800 -10.2795 -10.2795  -7.0049  -5.3958
 -5.0428  -5.0217  -5.0217  -3.7503  -3.7490  -3.7490  -2.0955  -2.0884
 -2.0884  -2.0710  -2.0710  -1.0415  -0.8969  -0.8553  -0.8147  -0.8144
 -0.6222  -0.5992  -0.5431  -0.5311  -0.5308  -0.5111  -0.5110  -0.5000
 -0.4914  -0.4913  -0.4850  -0.4276  -0.4211  -0.4206  -0.3932  -0.3930
 -- Virtual --
  0.0195   0.0587   0.0675   0.0707   0.0761   0.0906   0.0935   0.1043
  0.1131   0.1144   0.1380   0.1439   0.1450   0.1492   0.1575   0.1668
  0.1673   0.1767   0.1863   0.1895   0.1944   0.2021   0.2063   0.2159
  0.2212   0.2266   0.2271   0.2311   0.2683   0.2770   0.2809   0.2830
  0.2931   0.3017   0.3049   0.3137   0.3213   0.3323   0.3386   0.3517
  0.3521   0.3650   0.3766   0.3813   0.3874   0.3891   0.4017   0.4038
  0.4070   0.4131   0.4159   0.4314   0.4322   0.4357   0.4421   0.4426
  0.4580   0.4595   0.4648   0.4666   0.4703   0.4707   0.4845   0.4940
  0.4961   0.5090   0.5200   0.5213   0.5237   0.5275   0.5342   0.5358
  0.5428   0.5446   0.5585   0.5773   0.5794   0.5935   0.5952   0.5971
  0.6032   0.6083   0.6201   0.6305   0.6317   0.6391   0.6481   0.6535
  0.6841   0.6890   0.6933   0.7015   0.7047   0.7221   0.7457   0.7636
  0.7754   0.7906   0.8100   0.8387   0.8592   0.8597   0.8778   0.8856
  0.9039   0.9117   0.9201   0.9481   0.9606   0.9802   0.9954   1.0179
  1.0344   1.0349   1.0509   1.0723   1.0788   1.0806   1.0893   1.0903
  1.1173   1.1598   1.1601   1.1648   1.1815   1.2252   1.2412   1.2630
  1.2656   1.2693   1.2934   1.3149   1.3351   1.3404   1.3573   1.3836
  1.3881   1.4293   1.4431   1.6441   1.6762   1.6937   1.7106   1.7446
  1.7635   1.7843   1.8004   1.8059   1.8151   1.8607   1.8627   1.8943
  1.8996   1.9099   1.9405   2.0127   2.0137   2.0140   2.0199   2.0485
  2.0556   2.0669   2.0898   2.1224   2.1342   2.1497   2.1918   2.2051
  2.2279   2.2367   2.3256   2.4443   2.4715   2.4715   2.5413   2.5426
  2.6019   2.6065   2.6068   2.6202   2.6233   2.6348   2.7314   2.8964
  2.9022   2.9051   2.9795   2.9806   3.1745   3.1796   3.1804   3.2110
  3.2185   3.2356   3.5723  18.9574  19.0136  19.8595  56.6167
 --------------------------------------------------------------
 
          Ground-State Mulliken Net Atomic Charges

     Atom                 Charge (a.u.)
  ----------------------------------------
      1 H                     0.256953
      2 Si                   -0.575212
      3 C                     0.157440
      4 H                    -0.050707
      5 H                    -0.026491
      6 H                    -0.022522
      7 C                     0.255488
      8 H                    -0.011722
      9 H                     0.000166
     10 H                    -0.011855
     11 C                     0.157319
     12 H                    -0.022530
     13 H                    -0.050637
     14 H                    -0.026505
     15 I                     0.332210
     16 C                    -0.262136
     17 N                    -0.099261
  ----------------------------------------
  Sum of atomic charges =     0.000000

 -----------------------------------------------------------------
                    Cartesian Multipole Moments
 -----------------------------------------------------------------
    Charge (ESU x 10^10)
                 0.0000
    Dipole Moment (Debye)
         X      -5.1799      Y       0.0108      Z       0.5289
       Tot       5.2069
    Quadrupole Moments (Debye-Ang)
        XX     -89.9884     XY       0.0665     YY     -72.8912
        XZ       4.1813     YZ      -0.0109     ZZ     -73.5305
    Octopole Moments (Debye-Ang^2)
       XXX     -73.1165    XXY       0.2703    XYY      17.7455
       YYY      -0.0659    XXZ      18.3451    XYZ      -0.0372
       YYZ       8.0673    XZZ      15.5657    YZZ      -0.0187
       ZZZ      14.0432
    Hexadecapole Moments (Debye-Ang^3)
      XXXX   -3790.4744   XXXY       1.2842   XXYY    -594.4615
      XYYY      -0.0101   YYYY    -356.2759   XXXZ     141.9608
      XXYZ      -0.1810   XYYZ      -2.3688   YYYZ      -0.0624
      XXZZ    -597.5489   XYZZ       0.0166   YYZZ    -112.1274
      XZZZ      25.0676   YZZZ      -0.0647   ZZZZ    -310.5585
 -----------------------------------------------------------------
 Calculating analytic gradient of the SCF energy
 Gradient of SCF Energy
            1           2           3           4           5           6
    1  -0.0000107   0.0000267   0.0000315  -0.0000038  -0.0000051  -0.0000228
    2   0.0000162  -0.0000049   0.0000192  -0.0000011   0.0000164  -0.0000040
    3  -0.0002546   0.0002300   0.0000467  -0.0000073  -0.0000006  -0.0000130
            7           8           9          10          11          12
    1  -0.0000082   0.0000060  -0.0000385   0.0000055   0.0000281  -0.0000195
    2   0.0000010  -0.0000001  -0.0000001   0.0000005  -0.0000160   0.0000060
    3   0.0000073  -0.0000131   0.0000123  -0.0000125   0.0000472  -0.0000144
           13          14          15          16          17
    1  -0.0000022  -0.0000070  -0.0000397   0.0002868  -0.0002271
    2   0.0000017  -0.0000150  -0.0003088   0.0007326  -0.0004436
    3  -0.0000131  -0.0000012  -0.0005639   0.0012131  -0.0006629
 Max gradient component =       1.213E-03
 RMS gradient           =       2.553E-04
 Gradient time:  CPU 118.64 s  wall 7.52 s
 Geometry Optimization Parameters
   NAtoms,    NIC,     NZ,  NCons,   NDum,   NFix, NCnnct, MaxDiis
       17     109       0       0       0       0       0       0

 Cartesian Hessian Update
 Hessian updated using BFGS update


** GEOMETRY OPTIMIZATION IN DELOCALIZED INTERNAL COORDINATES **
   Searching for a Minimum

   Optimization Cycle:   4

                       Coordinates (Angstroms)
     ATOM                X               Y               Z
      1  H        -1.3571963077   -0.0002118777    0.9723267355
      2  Si       -2.5321913853   -0.0001275503    0.0241412421
      3  C        -2.4174143703   -1.5501064421   -1.0373747805
      4  H        -1.4887613812   -1.5651625296   -1.6304786076
      5  H        -2.4373405907   -2.4624444586   -0.4199720176
      6  H        -3.2632239261   -1.6041139877   -1.7424845113
      7  C        -4.0992969988   -0.0001882502    1.0644337587
      8  H        -4.1504984595   -0.8906109789    1.7109156721
      9  H        -4.9941795521   -0.0001308911    0.4204530200
     10  H        -4.1504800703    0.8901399243    1.7110478469
     11  C        -2.4173885031    1.5500093717   -1.0371508140
     12  H        -3.2631927586    1.6041353041   -1.7422570297
     13  H        -1.4887355771    1.5651385728   -1.6302556604
     14  H        -2.4373037253    2.4622593254   -0.4196171875
     15  I         1.3721081247    0.0008285726    0.2537255186
     16  C         3.3193580949    0.0070917215   -0.2506797284
     17  N         4.4327864145   -0.0064429923   -0.5675931655
   Point Group: c1    Number of degrees of freedom:    45


   Energy is   -800.020176094

 Hessian updated using BFGS update

 38 Hessian modes will be used to form the next step
  Hessian Eigenvalues:
     0.002000    0.003108    0.003650    0.004391    0.034591    0.045244
     0.045475    0.054350    0.054377    0.054724    0.055211    0.055216
     0.055448    0.146038    0.146802    0.151187    0.159851    0.160001
     0.160129    0.161337    0.172791    0.198365    0.200000    0.200001
     0.205965    0.206079    0.206870    0.334131    0.334137    0.334234
     0.334673    0.334797    0.334842    0.334904    0.335120    0.335127
     0.993563    1.292607

 Minimum search - taking simple RFO step
 Searching for Lamda that Minimizes Along All modes
 Value Taken    Lamda =  -0.00005738
 Step Taken.  Stepsize is  0.011517

                             Maximum     Tolerance    Cnvgd?
         Gradient           0.006107      0.000050      NO
         Displacement       0.006358      0.000050      NO
         Energy change      0.000016      0.000000      NO


 New Cartesian Coordinates Obtained by Inverse Iteration

 Displacement from previous Coordinates is:  0.040971
 ----------------------------------------------------------------
             Standard Nuclear Orientation (Angstroms)
    I     Atom           X                Y                Z
 ----------------------------------------------------------------
    1      H      -1.3588256200    -0.0000558839     0.9755312169
    2      Si     -2.5327366661    -0.0000165556     0.0257063538
    3      C      -2.4166810765    -1.5500538793    -1.0358340040
    4      H      -1.4868009402    -1.5654548284    -1.6270007864
    5      H      -2.4382215269    -2.4624994583    -0.4185907044
    6      H      -3.2610307918    -1.6036419486    -1.7426675326
    7      C      -4.1015231039    -0.0000232715     1.0634404732
    8      H      -4.1538427267    -0.8904044094     1.7099267713
    9      H      -4.9952314993     0.0000060327     0.4179115712
   10      H      -4.1538186156     0.8903248643     1.7099742093
   11      C      -2.4166432935     1.5500711938    -1.0357566480
   12      H      -3.2609896382     1.6037142135    -1.7425900252
   13      H      -1.4867610278     1.5654804291    -1.6269199553
   14      H      -2.4381645085     2.4624864065    -0.4184678248
   15      I       1.3731571408     0.0000289223     0.2523624755
   16      C       3.3180735207    -0.0001069459    -0.2654417184
   17      N       4.4370894014     0.0002079528    -0.5624035805
 ----------------------------------------------------------------
 Molecular Point Group                 C1    NOp =  1
 Largest Abelian Subgroup              C1    NOp =  1
 Nuclear Repulsion Energy =         432.56354163 hartrees
 There are       40 alpha and       40 beta electrons
 Applying Cartesian multipole field
    Component          Value
    ---------          -----
     (2,0,0)        1.00000E-11
     (0,2,0)        2.00000E-11
     (0,0,2)       -3.00000E-11
 Nucleus-field energy     =     0.0000000210 hartrees
 Requested basis set is def2-SVPD
 There are 103 shells and 239 basis functions
 A cutoff of  1.0D-14 yielded   4895 shell pairs
 There are     26415 function pairs (     29857 Cartesian)
 Requested basis set is def2-SVPD
 Compound shells will be simplified
 There are 103 shells and 239 basis functions
 A cutoff of  1.0D-14 yielded   4895 shell pairs
 There are     26415 function pairs (     29857 Cartesian)
 Smallest overlap matrix eigenvalue = 1.53E-04
 Attempting to make child job directory: /data/scratch/Me3SiH_ICN_vfb_forward20240611033149//Frg1/
 Failed to make child job directory:     /data/scratch/Me3SiH_ICN_vfb_forward20240611033149//Frg1/
 Attempting to make child job directory: /data/scratch/Me3SiH_ICN_vfb_forward20240611033149//Frg2/
 Failed to make child job directory:     /data/scratch/Me3SiH_ICN_vfb_forward20240611033149//Frg2/
 Creating input file /data/scratch/Me3SiH_ICN_vfb_forward20240611033149/Frg1.input
 using default PutDataFrgm: nothing
 calling putenv with: QCSCRATCH=/data/scratch/Me3SiH_ICN_vfb_forward20240611033149/ 
 Spawning Job For Fragment 0
 Done Job For Fragment 0
 calling putenv with: QCSCRATCH=/data/scratch 
 calling putenv with: QCTHREADS=16 
 Creating input file /data/scratch/Me3SiH_ICN_vfb_forward20240611033149/Frg2.input
 using default PutDataFrgm: nothing
 calling putenv with: QCSCRATCH=/data/scratch/Me3SiH_ICN_vfb_forward20240611033149/ 
 Spawning Job For Fragment 1
 Done Job For Fragment 1
 calling putenv with: QCSCRATCH=/data/scratch 
 calling putenv with: QCTHREADS=16 
 Time for running child jobs:  CPU 2.24 s  wall 22.61 s

 -----------------------------------------------------------------------
  General SCF calculation program by
  Eric Jon Sundstrom, Paul Horn, Yuezhi Mao, Dmitri Zuev, Alec White,
  David Stuck, Shaama M.S., Shane Yost, Joonho Lee, David Small,
  Daniel Levine, Susi Lehtola, Hugh Burton, Evgeny Epifanovsky,
  Bang C. Huynh
 -----------------------------------------------------------------------
Performing Restricted Closed Shell SCFMI
Doing General SCFMI
 Exchange:     0.1670 Hartree-Fock + 1.0000 wB97X-V + LR-HF
 Correlation:  1.0000 wB97X-V
 Using Euler-Maclaurin-Lebedev (75,302) quadrature formula
 Nonlocal Correlation:  VV10 with C = 0.0100 and b = 6.00 and scale = 1.00000
 Grid used for NLC:  SG-1 standard quadrature
performing fock build before subrot guess so that all methods have access
Printing subrot_rss_gen Method Specification:
Occupied Subspace Method is 0
Virtual Subspace Method is 0
Energy prior to optimization (guess energy) = -800.016279256988
Begin Timing: Total SCF Calculation
begin iterations for algorithm: DIIS         
the SCF tolerance is set to 1.00e-09
    1    -800.0162792570      1.96e-04     00000 
    2    -800.0179944804      7.26e-05     00000 
    3    -800.0181848247      3.68e-05     00000 
    4    -800.0182240732      2.27e-05     00000 
    5    -800.0182332628      1.27e-05     00000 
    6    -800.0182369032      4.74e-06     00000 
    7    -800.0182374769      1.69e-06     00000 
    8    -800.0182375351      4.03e-07     00000 
    9    -800.0182375392      1.63e-07     00000 
   10    -800.0182375399      7.36e-08     00000 
   11    -800.0182375400      2.69e-08     00000 
   12    -800.0182375401      7.32e-09     00000 
   13    -800.0182375401      2.23e-09     00000 
   14    -800.0182375401      8.04e-10     00000 Convergence criterion met
write pseudocanon occs and virts to disk
write pseudocanon orbital energies to disk
Timing for Total SCF: 37.00s (wall), 587.59s (cpu)
SCFMI Energy    -800.0182375401
<S^2>            0.00000
====================================================================
           Variational forward-backward (VFB) CT analysis           
 M. Loipersberger, Y. Mao and M. Head-Gordon, JCTC, 16, 1073 (2020) 
====================================================================
Calculating stabilization due to the forward (1->2) CT
Requested donor fragment: 1
updated OccSS dimension
        21
        19
updated VirtSS dimension
          199
           56
Energy prior to optimization (guess energy) = -800.018237540059
Begin Timing: Total SCF Calculation
begin iterations for algorithm: DIIS         
the SCF tolerance is set to 1.00e-09
    1    -800.0182375401      4.38e-04     00000 
    2    -800.0200743170      5.54e-05     00000 
    3    -800.0201899486      1.38e-05     00000 
    4    -800.0202003529      1.14e-05     00000 
    5    -800.0202037777      3.85e-06     00000 
    6    -800.0202043416      1.28e-06     00000 
    7    -800.0202044124      2.15e-07     00000 
    8    -800.0202044170      8.47e-08     00000 
    9    -800.0202044178      4.04e-08     00000 
   10    -800.0202044180      1.38e-08     00000 
   11    -800.0202044180      6.04e-09     00000 
   12    -800.0202044180      1.10e-09     00000 
   13    -800.0202044180      4.08e-10     00000 Convergence criterion met
write pseudocanon occs and virts to disk
write pseudocanon orbital energies to disk
Timing for Total SCF: 34.00s (wall), 539.72s (cpu)
Energy of the one-side CT state:     -800.0202044180
Stabilization due to one-side CT:    -5.1641 kJ/mol
<S^2>            0.00000
 Total energy in the final basis set =     -800.0202044180
    ==================================================
        The end of Object-Oriented SCFman: SCFMI      
    ==================================================
 
 --------------------------------------------------------------
 
                    Orbital Energies (a.u.)
 --------------------------------------------------------------
 
 Alpha MOs
 -- Occupied --
-66.1410 -14.4396 -10.3549 -10.2800 -10.2795 -10.2795  -7.0050  -5.3958
 -5.0429  -5.0218  -5.0218  -3.7503  -3.7490  -3.7490  -2.0955  -2.0885
 -2.0885  -2.0711  -2.0711  -1.0415  -0.8968  -0.8553  -0.8147  -0.8143
 -0.6221  -0.5993  -0.5431  -0.5310  -0.5308  -0.5111  -0.5109  -0.4999
 -0.4913  -0.4912  -0.4850  -0.4276  -0.4210  -0.4206  -0.3933  -0.3930
 -- Virtual --
  0.0192   0.0587   0.0677   0.0707   0.0761   0.0903   0.0934   0.1039
  0.1134   0.1144   0.1381   0.1438   0.1449   0.1492   0.1573   0.1668
  0.1673   0.1766   0.1866   0.1893   0.1944   0.2022   0.2065   0.2159
  0.2213   0.2265   0.2273   0.2310   0.2682   0.2769   0.2809   0.2830
  0.2932   0.3014   0.3049   0.3135   0.3215   0.3321   0.3385   0.3517
  0.3521   0.3642   0.3766   0.3818   0.3870   0.3903   0.4018   0.4041
  0.4075   0.4130   0.4160   0.4314   0.4324   0.4359   0.4425   0.4426
  0.4579   0.4595   0.4655   0.4666   0.4705   0.4706   0.4842   0.4939
  0.4955   0.5089   0.5201   0.5213   0.5228   0.5275   0.5344   0.5358
  0.5428   0.5447   0.5574   0.5770   0.5795   0.5934   0.5950   0.5974
  0.6032   0.6083   0.6198   0.6307   0.6312   0.6396   0.6482   0.6540
  0.6839   0.6890   0.6934   0.7014   0.7043   0.7221   0.7459   0.7636
  0.7747   0.7906   0.8095   0.8394   0.8589   0.8602   0.8774   0.8854
  0.9036   0.9115   0.9204   0.9481   0.9605   0.9799   0.9952   1.0178
  1.0344   1.0349   1.0502   1.0725   1.0787   1.0806   1.0894   1.0903
  1.1170   1.1600   1.1603   1.1648   1.1814   1.2252   1.2413   1.2629
  1.2653   1.2693   1.2933   1.3144   1.3397   1.3419   1.3538   1.3824
  1.3880   1.4290   1.4430   1.6446   1.6764   1.6937   1.7109   1.7446
[...]
 IR Intens:        6.447                  5.117                 13.568
 Raman Active:       YES                    YES                    YES
               X      Y      Z        X      Y      Z        X      Y      Z
 H          0.000  0.305 -0.000   -0.202  0.000  0.238   -0.000 -0.358  0.000
 Si         0.000  0.152 -0.000   -0.099  0.000  0.115   -0.000 -0.058  0.000
 C          0.035 -0.156 -0.148   -0.029 -0.133 -0.022    0.079  0.037  0.013
 H          0.001 -0.379 -0.206    0.002  0.131  0.009   -0.044 -0.232 -0.169
 H         -0.025 -0.105 -0.062    0.082 -0.316 -0.288   -0.125  0.085  0.072
 H         -0.002 -0.252 -0.109    0.069 -0.071 -0.142   -0.112  0.229  0.210
 C         -0.000  0.079  0.000    0.207 -0.000 -0.137    0.000  0.110 -0.000
 H          0.259 -0.081 -0.186    0.312 -0.013 -0.153    0.334 -0.108 -0.247
 H         -0.000 -0.113  0.000    0.216 -0.000 -0.135    0.000 -0.171 -0.000
 H         -0.259 -0.081  0.186    0.312  0.013 -0.152   -0.334 -0.108  0.247
 C         -0.035 -0.156  0.148   -0.029  0.133 -0.022   -0.079  0.037 -0.013
 H          0.002 -0.252  0.109    0.069  0.071 -0.142    0.112  0.229 -0.210
 H         -0.001 -0.379  0.206    0.002 -0.131  0.009    0.044 -0.232  0.169
 H          0.025 -0.105  0.063    0.082  0.316 -0.288    0.125  0.085 -0.072
 I          0.000  0.000 -0.000   -0.000 -0.000 -0.000   -0.000  0.000 -0.000
 C         -0.000  0.001  0.000    0.003  0.000  0.000    0.000 -0.001  0.000
 N         -0.000 -0.000  0.000    0.003 -0.000 -0.001    0.000  0.000 -0.000
 TransDip   0.000  0.081 -0.000   -0.027  0.000  0.067   -0.000 -0.118  0.000

 Mode:                22                     23                     24
 Frequency:       841.68                 859.71                 907.71
 Force Cnst:      0.6105                 0.6881                 0.6587
 Red. Mass:       1.4628                 1.5802                 1.3570
 IR Active:          YES                    YES                    YES
 IR Intens:       18.967                106.297                139.081
 Raman Active:       YES                    YES                    YES
               X      Y      Z        X      Y      Z        X      Y      Z
 H          0.189 -0.000 -0.236    0.045 -0.000  0.051    0.000  0.787 -0.000
 Si         0.036 -0.000 -0.060    0.082  0.000  0.044   -0.000 -0.087  0.000
 C         -0.020 -0.045  0.101   -0.091  0.011 -0.042   -0.034  0.047 -0.038
 H         -0.033  0.341  0.057    0.083  0.164  0.230    0.051  0.007  0.113
 H          0.058 -0.311 -0.310    0.147  0.097  0.108    0.024  0.196  0.193
 H          0.041  0.274  0.005    0.110 -0.355 -0.225    0.007 -0.185 -0.056
 C         -0.061  0.000 -0.021   -0.071 -0.000 -0.074    0.000  0.059 -0.000
 H          0.060  0.018  0.024    0.219  0.045  0.032    0.157 -0.058 -0.132
 H         -0.213  0.000  0.179   -0.351  0.000  0.306    0.000 -0.105  0.000
 H          0.060 -0.018  0.024    0.219 -0.045  0.032   -0.157 -0.058  0.132
 C         -0.020  0.045  0.101   -0.091 -0.011 -0.042    0.034  0.047  0.038
 H          0.041 -0.274  0.005    0.110  0.355 -0.225   -0.007 -0.185  0.056
 H         -0.033 -0.341  0.057    0.083 -0.164  0.230   -0.051  0.006 -0.113
 H          0.058  0.311 -0.310    0.147 -0.097  0.108   -0.024  0.196 -0.193
 I          0.000  0.000 -0.000   -0.001  0.000  0.000    0.000 -0.000  0.000
 C         -0.002 -0.000  0.000    0.002  0.000 -0.000    0.000  0.003 -0.000
 N         -0.002  0.000  0.001    0.002 -0.000 -0.001   -0.000 -0.001  0.000
 TransDip   0.040 -0.000 -0.134    0.310  0.000  0.113   -0.000 -0.378  0.000

 Mode:                25                     26                     27
 Frequency:       927.40                1274.35                1274.96
 Force Cnst:      0.6462                 1.2282                 1.2277
 Red. Mass:       1.2752                 1.2836                 1.2819
 IR Active:          YES                    YES                    YES
 IR Intens:      208.205                 39.674                 44.081
 Raman Active:       YES                    YES                    YES
               X      Y      Z        X      Y      Z        X      Y      Z
 H         -0.547  0.000  0.640   -0.011  0.000  0.016   -0.000 -0.018  0.000
 Si         0.042 -0.000 -0.062    0.010 -0.000 -0.012    0.000  0.016 -0.000
 C         -0.044 -0.004  0.018   -0.007  0.044  0.033    0.008 -0.092 -0.060
 H          0.012  0.183  0.100   -0.069 -0.170 -0.074    0.126  0.355  0.142
 H          0.074 -0.034 -0.028    0.027 -0.102 -0.174   -0.034  0.196  0.348
 H          0.055 -0.030 -0.087    0.092 -0.167 -0.069   -0.163  0.353  0.114
 C          0.028  0.000  0.071   -0.115  0.000  0.071   -0.000 -0.004  0.000
 H         -0.209 -0.020  0.016    0.435 -0.184 -0.140    0.001  0.003  0.009
 H          0.191 -0.000 -0.156    0.273 -0.000 -0.415    0.000  0.017 -0.000
 H         -0.209  0.021  0.016    0.435  0.184 -0.141   -0.001  0.003 -0.009
 C         -0.044  0.004  0.018   -0.007 -0.044  0.033   -0.008 -0.092  0.060
 H          0.055  0.030 -0.087    0.092  0.167 -0.069    0.163  0.353 -0.115
 H          0.012 -0.183  0.100   -0.068  0.170 -0.074   -0.126  0.355 -0.142
 H          0.074  0.034 -0.028    0.027  0.101 -0.173    0.034  0.196 -0.348
 I         -0.000 -0.000 -0.000    0.000  0.000  0.000    0.000 -0.000  0.000
 C          0.003  0.000  0.002   -0.000 -0.000 -0.000   -0.000  0.000 -0.000
 N          0.003 -0.000 -0.001   -0.000 -0.000  0.000   -0.000 -0.000  0.000
 TransDip   0.357 -0.000 -0.293    0.127 -0.000 -0.157    0.000  0.213 -0.000

 Mode:                28                     29                     30
 Frequency:      1282.75                1423.73                1426.09
 Force Cnst:      1.2087                 1.2561                 1.2574
 Red. Mass:       1.2468                 1.0517                 1.0494
 IR Active:          YES                    YES                    YES
 IR Intens:       10.292                  0.096                  0.205
 Raman Active:       YES                    YES                    YES
               X      Y      Z        X      Y      Z        X      Y      Z
 H          0.015  0.000  0.009   -0.000 -0.000  0.000    0.000  0.010 -0.000
 Si         0.002 -0.000  0.004    0.000 -0.000 -0.000   -0.000  0.001 -0.000
 C          0.005 -0.074 -0.052    0.018  0.018 -0.025    0.040 -0.006  0.012
 H          0.114  0.301  0.134    0.164  0.037  0.231   -0.091  0.325 -0.203
 H         -0.025  0.175  0.302   -0.163 -0.085 -0.178   -0.486  0.019  0.012
 H         -0.146  0.301  0.104   -0.233 -0.193  0.275    0.036 -0.270  0.023
 C         -0.064  0.000  0.036   -0.000 -0.038  0.000    0.000  0.015  0.000
 H          0.256 -0.100 -0.076    0.266  0.032  0.116   -0.112 -0.013 -0.046
 H          0.157 -0.000 -0.240    0.000  0.443 -0.000   -0.000 -0.182  0.000
 H          0.256  0.100 -0.076   -0.266  0.032 -0.116    0.111 -0.013  0.045
 C          0.005  0.074 -0.052   -0.018  0.018  0.025   -0.040 -0.006 -0.012
 H         -0.147 -0.301  0.104    0.233 -0.193 -0.275   -0.036 -0.270 -0.023
 H          0.114 -0.301  0.134   -0.164  0.037 -0.231    0.091  0.326  0.203
 H         -0.025 -0.175  0.302    0.163 -0.085  0.178    0.486  0.019 -0.013
 I          0.000 -0.000 -0.000    0.000 -0.000  0.000   -0.000  0.000 -0.000
 C          0.000 -0.000  0.000   -0.000  0.000 -0.000    0.000 -0.000  0.000
 N         -0.000  0.000  0.000    0.000 -0.000  0.000   -0.000  0.000  0.000
 TransDip   0.068 -0.000  0.077   -0.000  0.010 -0.000    0.000 -0.015  0.000

 Mode:                31                     32                     33
 Frequency:      1427.26                1435.48                1435.84
 Force Cnst:      1.2594                 1.2696                 1.2703
 Red. Mass:       1.0493                 1.0458                 1.0458
 IR Active:          YES                    YES                    YES
 IR Intens:        0.332                  2.628                  3.619
 Raman Active:       YES                    YES                    YES
               X      Y      Z        X      Y      Z        X      Y      Z
 H         -0.006  0.000  0.006    0.000  0.028 -0.000    0.019 -0.000 -0.024
 Si        -0.000 -0.000  0.001   -0.000 -0.008  0.000   -0.005  0.000  0.006
 C          0.012 -0.014  0.022   -0.000 -0.014  0.023   -0.029 -0.017  0.020
 H         -0.153  0.155 -0.260   -0.163  0.067 -0.257   -0.145 -0.151 -0.185
 H         -0.170  0.067  0.120   -0.030  0.078  0.146    0.330  0.093  0.195
 H          0.166 -0.030 -0.160    0.201  0.057 -0.214    0.233  0.296 -0.297
 C         -0.023  0.000 -0.040    0.000 -0.043  0.000    0.010  0.000  0.012
 H          0.091  0.294  0.387    0.339  0.038  0.137   -0.037 -0.099 -0.132
 H          0.139 -0.000 -0.235   -0.000  0.544 -0.000   -0.053 -0.000  0.089
 H          0.091 -0.294  0.387   -0.339  0.038 -0.138   -0.037  0.098 -0.132
 C          0.012  0.014  0.022    0.000 -0.014 -0.023   -0.029  0.017  0.020
 H          0.166  0.029 -0.160   -0.201  0.056  0.213    0.233 -0.296 -0.297
 H         -0.153 -0.155 -0.259    0.163  0.067  0.257   -0.145  0.151 -0.186
 H         -0.169 -0.067  0.120    0.031  0.077 -0.146    0.330 -0.093  0.195
 I          0.000  0.000  0.000    0.000  0.000  0.000    0.000 -0.000  0.000
 C         -0.000 -0.000 -0.000   -0.000 -0.000 -0.000   -0.000  0.000 -0.000
 N          0.000  0.000 -0.000    0.000  0.000  0.000    0.000 -0.000  0.000
 TransDip  -0.018 -0.000 -0.002    0.000  0.052 -0.000    0.018 -0.000 -0.058

 Mode:                34                     35                     36
 Frequency:      1443.53                2140.93                2364.32
 Force Cnst:      1.2815                 2.8040                41.9163
 Red. Mass:       1.0438                 1.0383                12.7269
 IR Active:          YES                    YES                    YES
 IR Intens:       10.373                417.422                  7.896
 Raman Active:       YES                    YES                    YES
               X      Y      Z        X      Y      Z        X      Y      Z
 H         -0.007 -0.000 -0.001    0.764  0.000  0.644   -0.051 -0.000 -0.034
 Si        -0.007 -0.000 -0.006   -0.026 -0.000 -0.022    0.001  0.000  0.001
 C         -0.025  0.010 -0.015   -0.001  0.000 -0.001    0.000  0.000  0.000
 H          0.124 -0.263  0.236   -0.004 -0.002  0.000   -0.001 -0.001 -0.001
 H          0.350 -0.050 -0.075    0.000  0.002 -0.003   -0.000 -0.000  0.000
 H         -0.105  0.170  0.073   -0.000 -0.008 -0.007    0.001  0.000 -0.001
 C         -0.016 -0.000 -0.029   -0.001 -0.000 -0.001    0.000  0.000 -0.000
 H          0.064  0.236  0.311   -0.001  0.003 -0.001    0.000 -0.000 -0.000
 H          0.118 -0.000 -0.194   -0.011  0.000  0.006   -0.000  0.000  0.000
 H          0.064 -0.236  0.311   -0.001 -0.003 -0.001    0.000  0.000 -0.000
 C         -0.025 -0.010 -0.015   -0.001 -0.000 -0.001    0.000 -0.000  0.000
 H         -0.105 -0.170  0.073   -0.000  0.008 -0.007    0.001 -0.000 -0.001
 H          0.124  0.263  0.236   -0.004  0.002  0.000   -0.001  0.001 -0.001
 H          0.350  0.050 -0.075    0.000 -0.002 -0.003   -0.000  0.000  0.000
 I          0.000  0.000 -0.000    0.000  0.000 -0.000   -0.006  0.000  0.002
 C         -0.000 -0.000 -0.000    0.003 -0.000 -0.001    0.754 -0.000 -0.214
 N         -0.000  0.000  0.000   -0.004  0.000  0.001   -0.595  0.000  0.169
 TransDip   0.076 -0.000  0.070   -0.609 -0.000 -0.239    0.088  0.000 -0.021

 Mode:                37                     38                     39
 Frequency:      3047.50                3047.77                3049.25
 Force Cnst:      5.6751                 5.6767                 5.6807
 Red. Mass:       1.0371                 1.0373                 1.0370
 IR Active:          YES                    YES                    YES
 IR Intens:        1.713                  2.921                  3.539
 Raman Active:       YES                    YES                    YES
               X      Y      Z        X      Y      Z        X      Y      Z
 H          0.000  0.000  0.001   -0.000 -0.001  0.000   -0.001  0.000  0.000
 Si         0.000 -0.000 -0.001    0.000  0.001 -0.000    0.001 -0.000 -0.001
 C         -0.001  0.029  0.022    0.001 -0.029 -0.022    0.000  0.003  0.002
 H          0.345  0.002 -0.201   -0.348 -0.002  0.203    0.027  0.001 -0.015
 H         -0.014 -0.324  0.228    0.014  0.320 -0.227   -0.001 -0.029  0.021
 H         -0.319 -0.014 -0.277    0.321  0.014  0.279   -0.028 -0.001 -0.024
 C          0.004 -0.000 -0.002    0.000  0.000 -0.000   -0.046  0.000  0.023
 H         -0.003 -0.039  0.028   -0.001 -0.003  0.003    0.025  0.452 -0.321
 H         -0.039 -0.000 -0.031   -0.000  0.000 -0.000    0.478  0.000  0.382
 H         -0.003  0.039  0.028    0.001 -0.003 -0.003    0.025 -0.452 -0.321
 C         -0.001 -0.029  0.022   -0.001 -0.029  0.022    0.000 -0.003  0.002
 H         -0.319  0.014 -0.277   -0.322  0.014 -0.279   -0.028  0.001 -0.024
 H          0.345 -0.002 -0.201    0.348 -0.002 -0.203    0.027 -0.001 -0.015
 H         -0.014  0.324  0.228   -0.014  0.321  0.227   -0.001  0.029  0.020
 I         -0.000  0.000  0.000   -0.000 -0.000 -0.000    0.000  0.000  0.000
 C          0.000 -0.000 -0.000    0.000  0.000 -0.000   -0.000 -0.000 -0.000
 N         -0.000  0.000  0.000   -0.000 -0.000  0.000   -0.000 -0.000  0.000
 TransDip   0.005  0.000  0.042   -0.000 -0.055  0.000   -0.055  0.000  0.025

 Mode:                40                     41                     42
 Frequency:      3138.87                3139.76                3142.05
 Force Cnst:      6.3945                 6.3963                 6.4066
 Red. Mass:       1.1016                 1.1013                 1.1014
 IR Active:          YES                    YES                    YES
 IR Intens:        0.171                 13.205                 11.626
 Raman Active:       YES                    YES                    YES
               X      Y      Z        X      Y      Z        X      Y      Z
 H          0.000  0.002 -0.000    0.004  0.000  0.004    0.005  0.000  0.003
 Si        -0.000  0.000  0.000   -0.001 -0.000 -0.000   -0.001 -0.000 -0.001
 C         -0.060  0.012 -0.022   -0.055  0.014 -0.026   -0.021 -0.002  0.001
 H          0.331 -0.004 -0.208    0.284 -0.003 -0.180    0.148 -0.003 -0.090
 H         -0.018 -0.166  0.109   -0.018 -0.198  0.131   -0.002  0.021 -0.015
 H          0.409  0.029  0.368    0.400  0.030  0.358    0.104  0.008  0.096
 C         -0.000 -0.002 -0.000    0.013  0.000  0.022   -0.043 -0.000 -0.076
 H          0.001  0.015 -0.011    0.010  0.098 -0.068   -0.035 -0.337  0.232
 H          0.000 -0.001  0.000   -0.169 -0.000 -0.129    0.594  0.000  0.448
 H         -0.001  0.015  0.011    0.010 -0.099 -0.068   -0.035  0.337  0.232
 C          0.060  0.012  0.022   -0.055 -0.014 -0.026   -0.021  0.002  0.001
 H         -0.409  0.029 -0.368    0.400 -0.030  0.358    0.104 -0.008  0.096
 H         -0.330 -0.004  0.207    0.284  0.003 -0.180    0.148  0.003 -0.090
 H          0.018 -0.166 -0.109   -0.018  0.198  0.131   -0.002 -0.021 -0.015
 I          0.000  0.000 -0.000   -0.000 -0.000  0.000   -0.000 -0.000  0.000
 C          0.000 -0.000  0.000    0.000 -0.000 -0.000    0.000  0.000 -0.000
 N          0.000  0.000 -0.000   -0.000  0.000  0.000   -0.000  0.000  0.000
 TransDip  -0.000  0.013  0.000   -0.113 -0.000 -0.027   -0.083 -0.000 -0.071

 Mode:                43                     44                     45
 Frequency:      3144.10                3144.44                3148.15
 Force Cnst:      6.4170                 6.4178                 6.4349
 Red. Mass:       1.1018                 1.1017                 1.1020
 IR Active:          YES                    YES                    YES
 IR Intens:        3.736                 10.969                  7.739
 Raman Active:       YES                    YES                    YES
               X      Y      Z        X      Y      Z        X      Y      Z
 H         -0.000  0.001 -0.000    0.000  0.000  0.002   -0.000  0.001 -0.000
 Si         0.000 -0.000  0.000    0.000 -0.000 -0.001   -0.000 -0.001  0.000
 C         -0.025 -0.036  0.048    0.027  0.035 -0.047   -0.001 -0.003  0.005
 H          0.368 -0.012 -0.215   -0.380  0.013  0.222    0.020 -0.001 -0.012
 H          0.015  0.456 -0.303   -0.015 -0.442  0.294    0.001  0.045 -0.029
 H         -0.082 -0.011 -0.061    0.067  0.010  0.048   -0.016 -0.002 -0.013
 C          0.000  0.008 -0.000   -0.008 -0.000 -0.013   -0.000 -0.092  0.000
 H         -0.004 -0.047  0.035   -0.007 -0.061  0.043    0.048  0.561 -0.418
 H         -0.000  0.001 -0.000    0.102  0.000  0.077   -0.000 -0.015 -0.000
 H          0.004 -0.048 -0.035   -0.007  0.061  0.043   -0.047  0.561  0.418
 C          0.025 -0.036 -0.048    0.027 -0.035 -0.047    0.001 -0.003 -0.005
 H          0.082 -0.011  0.061    0.067 -0.010  0.048    0.016 -0.002  0.013
 H         -0.368 -0.012  0.215   -0.380 -0.013  0.222   -0.020 -0.001  0.012
 H         -0.015  0.456  0.303   -0.015  0.442  0.293   -0.001  0.045  0.029
 I          0.000 -0.000  0.000    0.000 -0.000 -0.000    0.000 -0.000  0.000
 C         -0.000 -0.000  0.000   -0.000 -0.000  0.000    0.000  0.000  0.000
 N          0.000  0.000 -0.000    0.000 -0.000 -0.000   -0.000  0.000  0.000
 TransDip   0.000 -0.062  0.000    0.056 -0.000 -0.090   -0.000 -0.089  0.000

 STANDARD THERMODYNAMIC QUANTITIES AT   298.15 K  AND     1.00 ATM

   This Molecule has  0 Imaginary Frequencies
   Zero point vibrational energy:       79.625 kcal/mol

   Atom    1 Element H  Has Mass    1.00783
   Atom    2 Element Si Has Mass   27.97693
   Atom    3 Element C  Has Mass   12.00000
   Atom    4 Element H  Has Mass    1.00783
   Atom    5 Element H  Has Mass    1.00783
   Atom    6 Element H  Has Mass    1.00783
   Atom    7 Element C  Has Mass   12.00000
   Atom    8 Element H  Has Mass    1.00783
   Atom    9 Element H  Has Mass    1.00783
   Atom   10 Element H  Has Mass    1.00783
   Atom   11 Element C  Has Mass   12.00000
   Atom   12 Element H  Has Mass    1.00783
   Atom   13 Element H  Has Mass    1.00783
   Atom   14 Element H  Has Mass    1.00783
   Atom   15 Element I  Has Mass  126.90440
   Atom   16 Element C  Has Mass   12.00000
   Atom   17 Element N  Has Mass   14.00307
   Molecular Mass:   226.962700 amu
   Principal axes and moments of inertia in amu*Bohr^2:
                             1           2           3
    Eigenvalues --      545.67932  4669.12877  4706.14182
          X              -0.99999     0.00000     0.00383
          Y              -0.00000    -1.00000     0.00007
          Z              -0.00383    -0.00007    -0.99999
   Rotational Symmetry Number is   1
   The Molecule is an Asymmetric Top
   Translational Enthalpy:        0.889 kcal/mol
   Rotational Enthalpy:           0.889 kcal/mol
   Vibrational Enthalpy:         85.909 kcal/mol
   gas constant (RT):             0.592 kcal/mol
   Translational Entropy:        42.161  cal/mol.K
   Rotational Entropy:           30.862  cal/mol.K
   Vibrational Entropy:          47.511  cal/mol.K

   Total Enthalpy:               88.279 kcal/mol
   Total Entropy:               120.534  cal/mol.K

   Quasi-RRHO corrections using alpha = 4, and omega = 100 cm^-1
   QRRHO-Vib. Enthalpy:          84.235 kcal/mol
   QRRHO-Vib. Entropy:           39.893  cal/mol.K
   QRRHO-Total Enthalpy:         86.605 kcal/mol
   QRRHO-Total Entropy:         112.916  cal/mol.K
 Total job time:  10979.34s(wall), 137932.58s(cpu) 
 Tue Jun 11 06:56:07 2024

        *************************************************************
        *                                                           *
        *  Thank you very much for using Q-Chem.  Have a nice day.  *
        *                                                           *
        *************************************************************


