
Running Job 1 of 2 Me3SiH_ICF3_vfb_forward.in
qchem Me3SiH_ICF3_vfb_forward.in_2799706.0 /data/scratch/Me3SiH_ICF3_vfb_forward20240611170935/ 1
/opt/qchem/6.1/exe/qcprog.exe_s Me3SiH_ICF3_vfb_forward.in_2799706.0 /data/scratch/Me3SiH_ICF3_vfb_forward20240611170935/
                  Welcome to Q-Chem
     A Quantum Leap Into The Future Of Chemistry


 Q-Chem 6.1, Q-Chem, Inc., Pleasanton, CA (2023)

 E. Epifanovsky,  A. T. B. Gilbert,  Xintian Feng,  Joonho Lee,  Yuezhi Mao,  
 N. Mardirossian,  P. Pokhilko,  A. White,  M. Wormit,  M. P. Coons,  
 A. L. Dempwolff,  Zhengting Gan,  D. Hait,  P. R. Horn,  L. D. Jacobson,  
 I. Kaliman,  J. Kussmann,  A. W. Lange,  Ka Un Lao,  D. S. Levine,  Jie Liu,  
 S. C. McKenzie,  A. F. Morrison,  K. D. Nanda,  F. Plasser,  D. R. Rehn,  
 M. L. Vidal,  Zhi-Qiang You,  Ying Zhu,  B. Alam,  B. Albrecht,  
 A. Aldossary,  E. Alguire,  J. H. Andersen,  V. Athavale,  D. Barton,  
 K. Begam,  A. Behn,  N. Bellonzi,  Y. A. Bernard,  E. J. Berquist,  
 H. Burton,  A. Carreras,  K. Carter-Fenk,  Mathew Chow,  Romit Chakraborty,  
 Chandrima Chakravarty,  Junhan Chen,  A. D. Chien,  K. D. Closser,  
 V. Cofer-Shabica,  L. Cunha,  S. Dasgupta,  Jia Deng,  M. de Wergifosse,  
 M. Diedenhofen,  Hainam Do,  S. Ehlert,  Po-Tung Fang,  S. Fatehi,  
 Qingguo Feng,  T. Friedhoff,  Thomas Froitzheim,  B. Ganoe,  J. Gayvert,  
 Qinghui Ge,  G. Gidofalvi,  M. Gimferrer,  M. Goldey,  Montgomery Gray,  
 J. Gomes,  C. Gonzalez-Espinoza,  S. Gulania,  A. Gunina,  J. A. Gyamfi,  
 M. W. D. Hanson-Heine,  P. H. P. Harbach,  A. W. Hauser,  M. F. Herbst,  
 M. Hernandez Vera,  M. Hodecker,  Z. C. Holden,  S. Houck,  Xunkun Huang,  
 Kerwin Hui,  B. C. Huynh,  K. Ikeda,  M. Ivanov,  Hyunjun Ji,  Zuxin Jin,  
 Hanjie Jiang,  Subrata Jana,  B. Kaduk,  S. Kaehler,  R. Kang,  
 K. Khistyaev,  Jaehoon Kim,  Yongbin Kim,  P. Klunzinger,  Z. Koczor-Benda,  
 Joong Hoon Koh,  D. Kosenkov,  Saikiran Kotaru,  L. Koulias,  T. Kowalczyk,  
 C. M. Krauter,  K. Kue,  A. Kunitsa,  T. Kus,  A. Landau,  K. V. Lawler,  
 D. Lefrancois,  S. Lehtola,  Rain Li,  Shaozhi Li,  Yi-Pei Li,  
 Jiashu Liang,  M. Liebenthal,  Hung-Hsuan Lin,  You-Sheng Lin,  Fenglai Liu,  
 Kuan-Yu Liu,  Xiao Liu,  M. Loipersberger,  A. Luenser,  C. Malbon,  
 A. Manjanath,  P. Manohar,  E. Mansoor,  S. F. Manzer,  Shan-Ping Mao,  
 A. V. Marenich,  T. Markovich,  S. Mason,  F. Matz,  S. A. Maurer,  
 P. F. McLaughlin,  M. F. S. J. Menger,  J.-M. Mewes,  S. A. Mewes,  
 P. Morgante,  Mohammad Mostafanejad,  J. W. Mullinax,  K. J. Oosterbaan,  
 G. Paran,  V. Parravicini,  Alexander C. Paul,  Suranjan K. Paul,  
 F. Pavosevic,  Zheng Pei,  S. Prager,  E. I. Proynov,  E. Ramos,  B. Rana,  
 A. E. Rask,  A. Rettig,  R. M. Richard,  F. Rob,  E. Rossomme,  T. Scheele,  
 M. Scheurer,  M. Schneider,  P. E. Schneider,  Tim K. Schramm,  N. Sergueev,  
 S. M. Sharada,  M. Sharma,  Hengyuan Shen,  W. Skomorowski,  D. W. Small,  
 C. J. Stein,  Alistair J. Sterling,  Yingli Su,  Yu-Chuan Su,  
 E. J. Sundstrom,  J. Talbot,  Zhen Tao,  J. Thirman,  Hung-Yi Tsai,  
 T. Tsuchimochi,  N. M. Tubman,  C. Utku,  S. P. Veccham,  O. Vydrov,  
 J. Wenzel,  Jonathan Wong,  J. Witte,  A. Yamada,  Chou-Hsun Yang,  Kun Yao,  
 S. Yeganeh,  S. R. Yost,  A. Zech,  F. Zeller,  Igor Ying Zhang,  
 Xing Zhang,  Yu Zhang,  D. Zuev,  A. Aspuru-Guzik,  A. T. Bell,  
 N. A. Besley,  K. B. Bravaya,  B. R. Brooks,  D. Casanova,  Jeng-Da Chai,  
 Hsing-Ta Chen,  S. Coriani,  C. J. Cramer,  A. E. DePrince, III,  
 R. A. DiStasio Jr.,  A. Dreuw,  B. D. Dunietz,  T. R. Furlani,  
 W. A. Goddard III,  S. Grimme,  S. Hammes-Schiffer,  T. Head-Gordon,  
 W. J. Hehre,  Chao-Ping Hsu,  T.-C. Jagau,  Yousung Jung,  A. Klamt,  
 Jing Kong,  D. S. Lambrecht,  Xiangyuan Li,  WanZhen Liang,  N. J. Mayhall,  
 C. W. McCurdy,  J. B. Neaton,  T. Neudecker,  C. Ochsenfeld,  
 J. A. Parkhill,  R. Peverati,  V. A. Rassolov,  Haisheng Ren,  Yihan Shao,  
 L. V. Slipchenko,  R. P. Steele,  J. E. Subotnik,  A. J. W. Thom,  
 A. Tkatchenko,  D. G. Truhlar,  T. Van Voorhis,  Fan Wang,  
 T. A. Wesolowski,  K. B. Whaley,  H. L. Woodcock III,  P. M. Zimmerman,  
 S. Faraji,  P. M. W. Gill,  M. Head-Gordon,  J. M. Herbert,  A. I. Krylov

 Contributors to earlier versions of Q-Chem not listed above: 
 R. D. Adamson,  B. Austin,  R. Baer,  J. Baker,  G. J. O. Beran,  
 K. Brandhorst,  S. T. Brown,  E. F. C. Byrd,  Arup K. Chakraborty,  
 G. K. L. Chan,  Chun-Min Chang,  Yunqing Chen,  C.-L. Cheng,  
 Siu Hung Chien,  D. M. Chipman,  D. L. Crittenden,  H. Dachsel,  
 R. J. Doerksen,  A. D. Dutoi,  R. G. Edgar,  J. Fosso-Tande,  
 L. Fusti-Molnar,  D. Ghosh,  A. Ghysels,  A. Golubeva-Zadorozhnaya,  
 J. Gonthier,  M. S. Gordon,  S. R. Gwaltney,  G. Hawkins,  J. E. Herr,  
 A. Heyden,  S. Hirata,  E. G. Hohenstein,  G. Kedziora,  F. J. Keil,  
 C. Kelley,  Jihan Kim,  R. A. King,  R. Z. Khaliullin,  P. P. Korambath,  
 W. Kurlancheek,  A. Laurent,  A. M. Lee,  M. S. Lee,  S. V. Levchenko,  
 Ching Yeh Lin,  D. Liotard,  E. Livshits,  R. C. Lochan,  I. Lotan,  
 L. A. Martinez-Martinez,  P. E. Maslen,  N. Nair,  D. P. O'Neill,  
 D. Neuhauser,  E. Neuscamman,  C. M. Oana,  R. Olivares-Amaya,  R. Olson,  
 T. M. Perrine,  B. Peters,  P. A. Pieniazek,  A. Prociuk,  Y. M. Rhee,  
 J. Ritchie,  M. A. Rohrdanz,  E. Rosta,  N. J. Russ,  H. F. Schaefer III,  
 M. W. Schmidt,  N. E. Schultz,  S. Sharma,  N. Shenvi,  C. D. Sherrill,  
 A. C. Simmonett,  A. Sodt,  T. Stein,  D. Stuck,  K. S. Thanthiriwatte,  
 V. Vanovschi,  L. Vogt,  Tao Wang,  A. Warshel,  M. A. Watson,  
 C. F. Williams,  Q. Wu,  X. Xu,  Jun Yang,  W. Zhang,  Yan Zhao

   Please cite Q-Chem as follows:
  "Software for the frontiers of quantum chemistry:
   An overview of developments in the Q-Chem 5 package"
   J. Chem. Phys. 155, 084801 (2021)
   https://doi.org/10.1063/5.0055522 (open access)

 Q-Chem 6.1.1 for Intel X86 EM64T Linux

 Parts of Q-Chem use Armadillo 9.900.5 (Nocturnal Misbehaviour).
 http://arma.sourceforge.net/

 Q-Chem begins on Tue Jun 11 17:09:36 2024  

 Host: 
0

     Scratch files written to /data/scratch/Me3SiH_ICF3_vfb_forward20240611170935//
 Jan1824 |scratch|qcdevops|jenkins|workspace|build_RNUM -1
 Processing $rem in /opt/qchem/6.1/config/preferences:
 Processing $rem in /home/ymao/.qchemrc:

 Checking the input file for inconsistencies... 	...done.
 Reading auxiliary files from /opt/qchem/6.1/qcaux (QCAUX)

--------------------------------------------------------------
User input:
--------------------------------------------------------------
$molecule
0 1
--
0 1
C    2.9099427164  -1.5455816664   1.0287056806
Si   3.1315821078  -0.0004365354  -0.0250327230
C    4.8108030443  -0.0036246845  -0.8768617423
C    2.9100490034   1.5521147824   1.0178015819
H    2.0709240204  -0.0037859214  -1.0959634872
H    2.9966513272  -2.4612846418   0.4219707332
H    3.6770752202  -1.5927888082   1.8191986691
H    1.9231777602  -1.5592076496   1.5187816698
H    4.9358748887  -0.8960269843  -1.5106045549
H    4.9361024130   0.8843421917  -1.5167609654
H    5.6258216346  -0.0011618467  -0.1343730854
H    1.9231385571   1.5691704169   1.5074978608
H    3.6769769086   1.6051735502   1.8081040502
H    2.9967423708   2.4633994551   0.4044386901
--
0 1
I   -0.7477041975  -0.0026311828  -0.3620324281
C   -2.8116506363  -0.0021542445   0.2072182160
F   -3.1028158745   1.0809723613   0.9284464012
F   -3.5978441704  -0.0084382020  -0.8694556745
F   -3.1004120749  -1.0785913800   0.9393044422
$end

$rem
JOBTYPE  OPT
GEN_SCFMAN  TRUE
VFB_CTA  FORWARD
METHOD  WB97X-V
BASIS  DEF2-SVPD
UNRESTRICTED  FALSE
MAX_SCF_CYCLES  2000
THRESH  14
SCF_CONVERGENCE  9
MEM_TOTAL  8000
MEM_STATIC  2000
SCF_GUESS  FRAGMO
SYMMETRY  FALSE
SYM_IGNORE  FALSE
SCF_ALGORITHM  DIIS
BASIS_LIN_DEP_THRESH  6
IDERIV  1
SCFMI_MODE  0
XC_GRID  000075000302
NL_GRID  1
FD_MAT_VEC_PROD  FALSE
GEOM_OPT_TOL_GRADIENT  50
GEOM_OPT_TOL_DISPLACEMENT  50
GEOM_OPT_TOL_ENERGY  10
GEOM_OPT_DRIVER  OPTIMIZE
GEOM_OPT_MAX_CYCLES  200
$end

--------------------------------------------------------------
 ----------------------------------------------------------------
             Standard Nuclear Orientation (Angstroms)
    I     Atom           X                Y                Z
 ----------------------------------------------------------------
    1      C       2.9273030550    -1.5491726928     1.0159248756
    2      Si      3.1497002916    -0.0000599357    -0.0318113765
    3      C       4.8290515809    -0.0006097400    -0.8833891714
    4      C       2.9286037129     1.5485424999     1.0169701534
    5      H       2.0892066122     0.0011307335    -1.1029095217
    6      H       3.0137529156    -2.4625617963     0.4056754299
    7      H       3.6942950769    -1.5997245571     1.8063473606
    8      H       1.9404571532    -1.5643084861     1.5057935266
    9      H       4.9538778196    -0.8906089560    -1.5205505239
   10      H       4.9547917792     0.8897705020    -1.5198391285
   11      H       5.6439562326    -0.0013252911    -0.1407717258
   12      H       1.9416241928     1.5640896145     1.5065774281
   13      H       3.6954297703     1.5982566056     1.8075888613
   14      H       3.0157427875     2.4621528888     0.4071403650
   15      I      -0.7295344119     0.0005412982    -0.3694111541
   16      C      -2.7935685170    -0.0003817097     0.1995209916
   17      F      -3.0844282305     1.0800669603     0.9248773411
   18      F      -3.5795979086    -0.0022092745    -0.8772895225
   19      F      -3.0828575921    -1.0795233645     0.9274052116
 ----------------------------------------------------------------
 Molecular Point Group                 C1    NOp =  1
 Largest Abelian Subgroup              C1    NOp =  1
 Nuclear Repulsion Energy =         696.68155308 hartrees
 There are       50 alpha and       50 beta electrons
 Requested basis set is def2-SVPD
 There are 122 shells and 288 basis functions

 Total QAlloc Memory Limit   8000 MB
 Mega-Array Size      1956 MB
 MEM_STATIC part      2000 MB

 A cutoff of  1.0D-14 yielded   6573 shell pairs
 There are     36777 function pairs (     41822 Cartesian)
 Requested basis set is def2-SVPD
 Compound shells will be simplified
 There are 122 shells and 288 basis functions
 A cutoff of  1.0D-14 yielded   6573 shell pairs
 There are     36777 function pairs (     41822 Cartesian)
 Smallest overlap matrix eigenvalue = 1.48E-04

 Scale SEOQF with 1.000000e-02/1.000000e-01/1.000000e-01

 Standard Electronic Orientation quadrupole field applied
 Nucleus-field energy     =     0.0000000019 hartrees
 Attempting to make child job directory: /data/scratch/Me3SiH_ICF3_vfb_forward20240611170935//Frg1/
 Attempting to make child job directory: /data/scratch/Me3SiH_ICF3_vfb_forward20240611170935//Frg2/
 Creating input file /data/scratch/Me3SiH_ICF3_vfb_forward20240611170935/Frg1.input
 using default PutDataFrgm: nothing
 calling putenv with: QCSCRATCH=/data/scratch/Me3SiH_ICF3_vfb_forward20240611170935/ 
 Spawning Job For Fragment 0
 Done Job For Fragment 0
 calling putenv with: QCSCRATCH=/data/scratch 
 calling putenv with: QCTHREADS=16 
 Creating input file /data/scratch/Me3SiH_ICF3_vfb_forward20240611170935/Frg2.input
 using default PutDataFrgm: nothing
 calling putenv with: QCSCRATCH=/data/scratch/Me3SiH_ICF3_vfb_forward20240611170935/ 
 Spawning Job For Fragment 1
 Done Job For Fragment 1
 calling putenv with: QCSCRATCH=/data/scratch 
 calling putenv with: QCTHREADS=16 
 Time for running child jobs:  CPU 2.07 s  wall 29.51 s

 -----------------------------------------------------------------------
  General SCF calculation program by
  Eric Jon Sundstrom, Paul Horn, Yuezhi Mao, Dmitri Zuev, Alec White,
  David Stuck, Shaama M.S., Shane Yost, Joonho Lee, David Small,
  Daniel Levine, Susi Lehtola, Hugh Burton, Evgeny Epifanovsky,
  Bang C. Huynh
 -----------------------------------------------------------------------
Performing Restricted Closed Shell SCFMI
Doing General SCFMI
 Exchange:     0.1670 Hartree-Fock + 1.0000 wB97X-V + LR-HF
 Correlation:  1.0000 wB97X-V
 Using Euler-Maclaurin-Lebedev (75,302) quadrature formula
 Nonlocal Correlation:  VV10 with C = 0.0100 and b = 6.00 and scale = 1.00000
 Grid used for NLC:  SG-1 standard quadrature
performing fock build before subrot guess so that all methods have access
 using 16 threads for integral computing
 -------------------------------------------------------
 OpenMP Integral computing Module                
 Release: version 1.0, May 2013, Q-Chem Inc. Pittsburgh 
 -------------------------------------------------------
Printing subrot_rss_gen Method Specification:
Occupied Subspace Method is 0
Virtual Subspace Method is 0
Energy prior to optimization (guess energy) = -1044.580735718368
Begin Timing: Total SCF Calculation
begin iterations for algorithm: DIIS         
the SCF tolerance is set to 1.00e-09
    1   -1044.5807357184      1.39e-04     00000 
    2   -1044.5818174449      5.17e-05     00000 
    3   -1044.5819380341      2.55e-05     00000 
    4   -1044.5819614051      1.23e-05     00000 
    5   -1044.5819653983      7.37e-06     00000 
    6   -1044.5819667004      2.97e-06     00000 
    7   -1044.5819668560      1.21e-06     00000 
    8   -1044.5819668819      4.08e-07     00000 
    9   -1044.5819668864      2.03e-07     00000 
   10   -1044.5819668874      1.07e-07     00000 
   11   -1044.5819668878      3.85e-08     00000 
   12   -1044.5819668878      1.36e-08     00000 
   13   -1044.5819668878      4.71e-09     00000 
   14   -1044.5819668878      1.60e-09     00000 
   15   -1044.5819668878      7.43e-10     00000 Convergence criterion met
write pseudocanon occs and virts to disk
write pseudocanon orbital energies to disk
Timing for Total SCF: 69.00s (wall), 1021.51s (cpu)
SCFMI Energy   -1044.5819668878
<S^2>            0.00000
====================================================================
           Variational forward-backward (VFB) CT analysis           
 M. Loipersberger, Y. Mao and M. Head-Gordon, JCTC, 16, 1073 (2020) 
====================================================================
Calculating stabilization due to the forward (1->2) CT
Requested donor fragment: 1
updated OccSS dimension
        21
        29
updated VirtSS dimension
          238
           95
Energy prior to optimization (guess energy) = -1044.581966887819
Begin Timing: Total SCF Calculation
begin iterations for algorithm: DIIS         
the SCF tolerance is set to 1.00e-09
    1   -1044.5819668878      3.32e-04     00000 
    2   -1044.5834684919      3.73e-05     00000 
    3   -1044.5835530706      9.22e-06     00000 
    4   -1044.5835611032      5.61e-06     00000 
    5   -1044.5835627391      1.67e-06     00000 
    6   -1044.5835629643      6.15e-07     00000 
    7   -1044.5835629815      1.53e-07     00000 
    8   -1044.5835629843      5.08e-08     00000 
    9   -1044.5835629848      2.42e-08     00000 
   10   -1044.5835629849      7.90e-09     00000 
   11   -1044.5835629849      4.12e-09     00000 
   12   -1044.5835629849      1.13e-09     00000 
   13   -1044.5835629849      4.55e-10     00000 Convergence criterion met
write pseudocanon occs and virts to disk
write pseudocanon orbital energies to disk
Timing for Total SCF: 60.00s (wall), 893.82s (cpu)
Energy of the one-side CT state:    -1044.5835629849
Stabilization due to one-side CT:    -4.1906 kJ/mol
<S^2>            0.00000
 Total energy in the final basis set =    -1044.5835629849
    ==================================================
        The end of Object-Oriented SCFman: SCFMI      
    ==================================================
 
 --------------------------------------------------------------
 
                    Orbital Energies (a.u.)
 --------------------------------------------------------------
 
 Alpha MOs
 -- Occupied --
-66.1316 -24.8348 -24.8348 -24.8347 -10.5857 -10.2727 -10.2715 -10.2715
 -6.9751  -5.3863  -5.0111  -4.9929  -4.9928  -3.7406  -3.7396  -3.7396
 -2.0638  -2.0581  -2.0580  -2.0429  -2.0429  -1.4645  -1.3684  -1.3684
 -0.8946  -0.8474  -0.8189  -0.8070  -0.8064  -0.7406  -0.7405  -0.6929
 -0.6132  -0.6132  -0.6031  -0.5752  -0.5751  -0.5506  -0.5367  -0.5235
 -0.5233  -0.5040  -0.5033  -0.4922  -0.4755  -0.4157  -0.4125  -0.4121
 -0.3872  -0.3869
 -- Virtual --
  0.0183   0.0678   0.0754   0.0807   0.0827   0.1038   0.1117   0.1122
  0.1360   0.1399   0.1485   0.1513   0.1544   0.1616   0.1698   0.1712
  0.1741   0.1785   0.1853   0.1916   0.1956   0.2021   0.2101   0.2136
  0.2142   0.2198   0.2256   0.2258   0.2423   0.2474   0.2545   0.2589
  0.2707   0.2741   0.2811   0.2904   0.2912   0.2990   0.3026   0.3040
  0.3207   0.3235   0.3300   0.3330   0.3351   0.3434   0.3548   0.3632
  0.3754   0.3756   0.3925   0.4006   0.4076   0.4109   0.4159   0.4180
  0.4278   0.4311   0.4360   0.4416   0.4471   0.4522   0.4534   0.4643
  0.4665   0.4712   0.4764   0.4766   0.4785   0.4853   0.4890   0.4949
  0.5153   0.5205   0.5290   0.5310   0.5362   0.5419   0.5488   0.5494
  0.5587   0.5619   0.5706   0.5735   0.5892   0.5912   0.6005   0.6108
  0.6129   0.6138   0.6259   0.6279   0.6342   0.6627   0.6687   0.6808
  0.6834   0.6885   0.7092   0.7101   0.7125   0.7274   0.7337   0.7445
  0.7543   0.7720   0.7726   0.7743   0.7922   0.8040   0.8243   0.8297
  0.8321   0.8468   0.8629   0.8784   0.8869   0.8883   0.9106   0.9117
  0.9301   0.9396   0.9533   0.9597   0.9681   0.9719   0.9888   1.0027
  1.0302   1.0317   1.0413   1.0576   1.0644   1.0832   1.0881   1.0904
  1.0934   1.1059   1.1141   1.1315   1.1543   1.1606   1.1755   1.1767
  1.1899   1.1983   1.2046   1.2482   1.2483   1.2700   1.2837   1.2846
  1.3266   1.3917   1.3945   1.4262   1.4544   1.6716   1.6857   1.6972
  1.7037   1.7203   1.7536   1.7770   1.7914   1.8085   1.8111   1.8131
  1.8183   1.8313   1.8361   1.8749   1.9222   1.9544   2.0108   2.0150
  2.0155   2.0221   2.0235   2.0271   2.0317   2.0574   2.0628   2.0860
  2.0995   2.1312   2.1416   2.1646   2.1882   2.1882   2.2014   2.2059
  2.2152   2.2299   2.2310   2.2354   2.2437   2.3331   2.3587   2.3849
  2.4151   2.4547   2.4798   2.4822   2.6098   2.6140   2.6159   2.6271
  2.6313   2.6447   2.9047   2.9079   2.9141   3.1837   3.1870   3.1887
  3.2187   3.2281   3.2453   3.3256   3.3902   3.3944   3.3947   3.4106
  3.4136   3.4519   3.4553   3.4578   3.6015   3.7616   3.7622   3.8388
  4.0734   4.0766  19.1459  19.2393  20.1271  56.6880
 --------------------------------------------------------------
 
          Ground-State Mulliken Net Atomic Charges

     Atom                 Charge (a.u.)
  ----------------------------------------
      1 C                     0.173373
      2 Si                   -0.634024
      3 C                     0.267546
      4 C                     0.173298
      5 H                     0.308626
      6 H                    -0.025483
      7 H                    -0.020741
      8 H                    -0.070356
      9 H                    -0.015410
     10 H                    -0.015393
     11 H                    -0.003215
     12 H                    -0.070050
     13 H                    -0.021028
     14 H                    -0.025332
     15 I                     0.226131
     16 C                     0.835691
     17 F                    -0.360475
     18 F                    -0.362691
     19 F                    -0.360467
  ----------------------------------------
  Sum of atomic charges =     0.000000

 -----------------------------------------------------------------
                    Cartesian Multipole Moments
 -----------------------------------------------------------------
    Charge (ESU x 10^10)
                 0.0000
    Dipole Moment (Debye)
         X       2.1797      Y      -0.0004      Z       0.1691
       Tot       2.1862
    Quadrupole Moments (Debye-Ang)
        XX     -81.3959     XY      -0.0011     YY     -84.0436
        XZ       0.9400     YZ      -0.0004     ZZ     -84.1752
    Octopole Moments (Debye-Ang^2)
       XXX     -81.1129    XXY       0.0015    XYY     -32.8807
       YYY       0.0134    XXZ       1.1686    XYZ      -0.0014
       YYZ      -8.2070    XZZ     -32.8580    YZZ       0.0046
       ZZZ     -10.5429
    Hexadecapole Moments (Debye-Ang^3)
      XXXX   -4030.7398   XXXY       0.0040   XXYY    -743.1780
      XYYY       0.0215   YYYY    -433.1562   XXXZ      35.2884
      XXYZ      -0.0327   XYYZ     -10.5362   YYYZ      -0.0092
      XXZZ    -731.1844   XYZZ      -0.0154   YYZZ    -135.8897
      XZZZ       0.7310   YZZZ      -0.0113   ZZZZ    -370.4898
 -----------------------------------------------------------------
 Calculating analytic gradient of the SCF energy
 Gradient of SCF Energy
            1           2           3           4           5           6
    1   0.0000646  -0.0003302   0.0000387   0.0000723  -0.0005661  -0.0000029
    2   0.0000011  -0.0000091  -0.0000031  -0.0000036   0.0000109  -0.0000014
    3   0.0000272  -0.0000916   0.0000550   0.0000342   0.0001155  -0.0000080
            7           8           9          10          11          12
    1   0.0000230  -0.0001014  -0.0000106  -0.0000117   0.0000179  -0.0001053
    2  -0.0000227   0.0000480  -0.0000013   0.0000021   0.0000000  -0.0000511
    3  -0.0000008  -0.0000388  -0.0000051  -0.0000048  -0.0000134  -0.0000419
           13          14          15          16          17          18
    1   0.0000184  -0.0000040   0.0008679  -0.0001574   0.0000505   0.0000877
    2   0.0000301  -0.0000004   0.0000056  -0.0000155  -0.0000651   0.0000005
    3  -0.0000010  -0.0000128   0.0000030   0.0000453  -0.0000545   0.0000499
           19
    1   0.0000487
    2   0.0000749
    3  -0.0000576
 Max gradient component =       8.679E-04
 RMS gradient           =       1.517E-04
 Gradient time:  CPU 207.85 s  wall 14.22 s
 Geometry Optimization Parameters
   NAtoms,    NIC,     NZ,  NCons,   NDum,   NFix, NCnnct, MaxDiis
       19     122       0       0       0       0       0       0


** GEOMETRY OPTIMIZATION IN DELOCALIZED INTERNAL COORDINATES **
   Searching for a Minimum

   Optimization Cycle:   1

                       Coordinates (Angstroms)
     ATOM                X               Y               Z
      1  C         2.9273030550   -1.5491726928    1.0159248756
      2  Si        3.1497002916   -0.0000599357   -0.0318113765
      3  C         4.8290515809   -0.0006097400   -0.8833891714
      4  C         2.9286037129    1.5485424999    1.0169701534
      5  H         2.0892066122    0.0011307335   -1.1029095217
      6  H         3.0137529156   -2.4625617963    0.4056754299
      7  H         3.6942950769   -1.5997245571    1.8063473606
      8  H         1.9404571532   -1.5643084861    1.5057935266
      9  H         4.9538778196   -0.8906089560   -1.5205505239
     10  H         4.9547917792    0.8897705020   -1.5198391285
     11  H         5.6439562326   -0.0013252911   -0.1407717258
     12  H         1.9416241928    1.5640896145    1.5065774281
     13  H         3.6954297703    1.5982566056    1.8075888613
     14  H         3.0157427875    2.4621528888    0.4071403650
     15  I        -0.7295344119    0.0005412982   -0.3694111541
     16  C        -2.7935685170   -0.0003817097    0.1995209916
     17  F        -3.0844282305    1.0800669603    0.9248773411
     18  F        -3.5795979086   -0.0022092745   -0.8772895225
     19  F        -3.0828575921   -1.0795233645    0.9274052116
   Point Group: c1    Number of degrees of freedom:    51


   Energy is  -1044.583562985


 Attempting to generate delocalized internal coordinates
 Initial Hessian constructed with Jon Baker's OPTIMIZE code

 51 Hessian modes will be used to form the next step
  Hessian Eigenvalues:
     0.002000    0.002010    0.003275    0.003276    0.003331    0.015255
     0.035657    0.044519    0.044685    0.054297    0.054318    0.054516
     0.055016    0.055037    0.055115    0.107850    0.144898    0.145447
     0.147077    0.148136    0.160000    0.160000    0.160000    0.160000
     0.160000    0.160000    0.160000    0.160000    0.160000    0.160000
     0.165462    0.201977    0.202045    0.205149    0.205154    0.205390
     0.250000    0.250000    0.250000    0.334025    0.334039    0.334049
     0.334736    0.334742    0.334778    0.334788    0.334991    0.334992
     0.586963    0.587016    0.587611

 Minimum search - taking simple RFO step
 Searching for Lamda that Minimizes Along All modes
 Value Taken    Lamda =  -0.00005831
 Step Taken.  Stepsize is  0.057996

                             Maximum     Tolerance    Cnvgd?
         Gradient           0.001034      0.000050      NO
         Displacement       0.032681      0.000050      NO
         Energy change     *********      0.000000      NO


 New Cartesian Coordinates Obtained by Inverse Iteration

 Displacement from previous Coordinates is:  0.155062
 ----------------------------------------------------------------
             Standard Nuclear Orientation (Angstroms)
    I     Atom           X                Y                Z
 ----------------------------------------------------------------
    1      C       2.9407846933    -1.5493986461     1.0200347337
    2      Si      3.1579412599    -0.0001465522    -0.0287254818
    3      C       4.8339073716    -0.0005295467    -0.8868594594
    4      C       2.9417560617     1.5486423762     1.0209376007
    5      H       2.0942532498     0.0007122370    -1.0979902967
    6      H       3.0246305126    -2.4627932655     0.4094447395
    7      H       3.7118058535    -1.5995071293     1.8065191014
    8      H       1.9568165406    -1.5652460700     1.5153774717
    9      H       4.9565439069    -0.8905868163    -1.5243597989
   10      H       4.9572193099     0.8898230843    -1.5238169090
   11      H       5.6514964734    -0.0010660564    -0.1472122856
   12      H       1.9576921278     1.5647635191     1.5160944457
   13      H       3.7126539003     1.5980367968     1.8075764826
   14      H       3.0261314584     2.4622616539     0.4107498602
   15      I      -0.7565369233     0.0004391395    -0.3675800485
   16      C      -2.8227809187    -0.0002318906     0.1939478624
   17      F      -3.1162407197     1.0800965027     0.9185929210
   18      F      -3.6052620178    -0.0017173451    -0.8855442476
   19      F      -3.1150058202    -1.0794866925     0.9206627290
 ----------------------------------------------------------------
 Molecular Point Group                 C1    NOp =  1
 Largest Abelian Subgroup              C1    NOp =  1
 Nuclear Repulsion Energy =         694.95716832 hartrees
 There are       50 alpha and       50 beta electrons
 Applying Cartesian multipole field
    Component          Value
    ---------          -----
     (2,0,0)        1.00000E-12
     (0,2,0)        2.00000E-11
     (0,0,2)       -3.00000E-11
 Nucleus-field energy     =     0.0000000019 hartrees
 Requested basis set is def2-SVPD
 There are 122 shells and 288 basis functions
 A cutoff of  1.0D-14 yielded   6563 shell pairs
 There are     36659 function pairs (     41668 Cartesian)
 Requested basis set is def2-SVPD
 Compound shells will be simplified
 There are 122 shells and 288 basis functions
 A cutoff of  1.0D-14 yielded   6563 shell pairs
 There are     36659 function pairs (     41668 Cartesian)
 Smallest overlap matrix eigenvalue = 1.48E-04
 Attempting to make child job directory: /data/scratch/Me3SiH_ICF3_vfb_forward20240611170935//Frg1/
 Failed to make child job directory:     /data/scratch/Me3SiH_ICF3_vfb_forward20240611170935//Frg1/
 Attempting to make child job directory: /data/scratch/Me3SiH_ICF3_vfb_forward20240611170935//Frg2/
 Failed to make child job directory:     /data/scratch/Me3SiH_ICF3_vfb_forward20240611170935//Frg2/
 Creating input file /data/scratch/Me3SiH_ICF3_vfb_forward20240611170935/Frg1.input
 using default PutDataFrgm: nothing
 calling putenv with: QCSCRATCH=/data/scratch/Me3SiH_ICF3_vfb_forward20240611170935/ 
 Spawning Job For Fragment 0
 Done Job For Fragment 0
 calling putenv with: QCSCRATCH=/data/scratch 
 calling putenv with: QCTHREADS=16 
 Creating input file /data/scratch/Me3SiH_ICF3_vfb_forward20240611170935/Frg2.input
 using default PutDataFrgm: nothing
 calling putenv with: QCSCRATCH=/data/scratch/Me3SiH_ICF3_vfb_forward20240611170935/ 
 Spawning Job For Fragment 1
 Done Job For Fragment 1
 calling putenv with: QCSCRATCH=/data/scratch 
 calling putenv with: QCTHREADS=16 
 Time for running child jobs:  CPU 2.28 s  wall 35.24 s

 -----------------------------------------------------------------------
  General SCF calculation program by
  Eric Jon Sundstrom, Paul Horn, Yuezhi Mao, Dmitri Zuev, Alec White,
  David Stuck, Shaama M.S., Shane Yost, Joonho Lee, David Small,
  Daniel Levine, Susi Lehtola, Hugh Burton, Evgeny Epifanovsky,
  Bang C. Huynh
 -----------------------------------------------------------------------
Performing Restricted Closed Shell SCFMI
Doing General SCFMI
 Exchange:     0.1670 Hartree-Fock + 1.0000 wB97X-V + LR-HF
 Correlation:  1.0000 wB97X-V
 Using Euler-Maclaurin-Lebedev (75,302) quadrature formula
 Nonlocal Correlation:  VV10 with C = 0.0100 and b = 6.00 and scale = 1.00000
 Grid used for NLC:  SG-1 standard quadrature
performing fock build before subrot guess so that all methods have access
Printing subrot_rss_gen Method Specification:
Occupied Subspace Method is 0
Virtual Subspace Method is 0
Energy prior to optimization (guess energy) = -1044.580986401661
Begin Timing: Total SCF Calculation
begin iterations for algorithm: DIIS         
the SCF tolerance is set to 1.00e-09
    1   -1044.5809864017      1.34e-04     00000 
    2   -1044.5819954673      4.98e-05     00000 
    3   -1044.5821090592      2.43e-05     00000 
    4   -1044.5821308302      1.15e-05     00000 
    5   -1044.5821345076      6.83e-06     00000 
    6   -1044.5821356658      2.65e-06     00000 
    7   -1044.5821357981      1.06e-06     00000 
    8   -1044.5821358187      3.42e-07     00000 
    9   -1044.5821358219      1.70e-07     00000 
   10   -1044.5821358226      8.85e-08     00000 
   11   -1044.5821358228      3.15e-08     00000 
   12   -1044.5821358228      1.11e-08     00000 
   13   -1044.5821358228      3.76e-09     00000 
   14   -1044.5821358228      1.19e-09     00000 
   15   -1044.5821358228      5.45e-10     00000 Convergence criterion met
write pseudocanon occs and virts to disk
write pseudocanon orbital energies to disk
Timing for Total SCF: 72.00s (wall), 1037.73s (cpu)
SCFMI Energy   -1044.5821358228
<S^2>            0.00000
====================================================================
           Variational forward-backward (VFB) CT analysis           
 M. Loipersberger, Y. Mao and M. Head-Gordon, JCTC, 16, 1073 (2020) 
====================================================================
Calculating stabilization due to the forward (1->2) CT
Requested donor fragment: 1
updated OccSS dimension
        21
        29
updated VirtSS dimension
          238
           95
Energy prior to optimization (guess energy) = -1044.582135822825
Begin Timing: Total SCF Calculation
begin iterations for algorithm: DIIS         
the SCF tolerance is set to 1.00e-09
    1   -1044.5821358228      3.19e-04     00000 
    2   -1044.5835209196      3.46e-05     00000 
    3   -1044.5835973617      8.53e-06     00000 
    4   -1044.5836044933      5.24e-06     00000 
    5   -1044.5836059265      1.55e-06     00000 
    6   -1044.5836061219      5.75e-07     00000 
    7   -1044.5836061368      1.40e-07     00000 
    8   -1044.5836061392      4.60e-08     00000 
    9   -1044.5836061396      2.15e-08     00000 
   10   -1044.5836061397      7.01e-09     00000 
   11   -1044.5836061397      3.65e-09     00000 
   12   -1044.5836061397      1.00e-09     00000 
   13   -1044.5836061397      3.98e-10     00000 Convergence criterion met
write pseudocanon occs and virts to disk
write pseudocanon orbital energies to disk
Timing for Total SCF: 59.00s (wall), 883.74s (cpu)
Energy of the one-side CT state:    -1044.5836061397
Stabilization due to one-side CT:    -3.8604 kJ/mol
<S^2>            0.00000
 Total energy in the final basis set =    -1044.5836061397
    ==================================================
        The end of Object-Oriented SCFman: SCFMI      
    ==================================================
 
 --------------------------------------------------------------
 
                    Orbital Energies (a.u.)
 --------------------------------------------------------------
 
 Alpha MOs
 -- Occupied --
-66.1314 -24.8350 -24.8350 -24.8349 -10.5861 -10.2724 -10.2715 -10.2715
 -6.9753  -5.3861  -5.0114  -4.9931  -4.9931  -3.7404  -3.7394  -3.7394
 -2.0640  -2.0583  -2.0582  -2.0431  -2.0431  -1.4647  -1.3686  -1.3686
 -0.8948  -0.8473  -0.8191  -0.8069  -0.8063  -0.7408  -0.7407  -0.6930
 -0.6134  -0.6133  -0.6027  -0.5753  -0.5753  -0.5508  -0.5365  -0.5234
 -0.5231  -0.5037  -0.5032  -0.4921  -0.4756  -0.4157  -0.4124  -0.4121
 -0.3874  -0.3871
 -- Virtual --
  0.0177   0.0679   0.0755   0.0806   0.0826   0.1038   0.1115   0.1122
  0.1363   0.1397   0.1484   0.1515   0.1540   0.1613   0.1696   0.1709
  0.1740   0.1785   0.1849   0.1916   0.1956   0.2021   0.2102   0.2135
  0.2137   0.2192   0.2255   0.2257   0.2416   0.2469   0.2543   0.2578
  0.2698   0.2736   0.2808   0.2905   0.2910   0.2994   0.3027   0.3042
  0.3203   0.3233   0.3295   0.3326   0.3346   0.3436   0.3547   0.3650
  0.3745   0.3747   0.3926   0.4004   0.4077   0.4106   0.4155   0.4181
  0.4275   0.4302   0.4358   0.4415   0.4470   0.4520   0.4532   0.4641
  0.4662   0.4718   0.4759   0.4762   0.4786   0.4852   0.4885   0.4942
  0.5150   0.5197   0.5279   0.5308   0.5365   0.5424   0.5487   0.5490
  0.5581   0.5614   0.5705   0.5726   0.5895   0.5912   0.6008   0.6098
  0.6126   0.6137   0.6259   0.6273   0.6347   0.6620   0.6677   0.6803
  0.6828   0.6872   0.7077   0.7099   0.7115   0.7275   0.7331   0.7434
  0.7528   0.7716   0.7723   0.7743   0.7885   0.8030   0.8244   0.8292
  0.8293   0.8459   0.8618   0.8782   0.8866   0.8882   0.9103   0.9109
  0.9295   0.9387   0.9524   0.9596   0.9683   0.9714   0.9887   1.0023
  1.0302   1.0313   1.0407   1.0567   1.0638   1.0811   1.0879   1.0906
  1.0933   1.1049   1.1142   1.1305   1.1541   1.1606   1.1753   1.1762
  1.1891   1.1963   1.2046   1.2465   1.2483   1.2695   1.2832   1.2842
  1.3258   1.3897   1.3940   1.4262   1.4541   1.6708   1.6853   1.6965
  1.7037   1.7202   1.7536   1.7764   1.7917   1.8076   1.8112   1.8118
  1.8179   1.8310   1.8360   1.8739   1.9222   1.9538   2.0107   2.0146
  2.0152   2.0222   2.0236   2.0267   2.0314   2.0578   2.0626   2.0850
  2.0993   2.1309   2.1418   2.1639   2.1877   2.1878   2.2013   2.2056
  2.2152   2.2296   2.2306   2.2350   2.2437   2.3327   2.3577   2.3834
  2.4145   2.4545   2.4800   2.4821   2.6099   2.6141   2.6159   2.6273
  2.6314   2.6446   2.9047   2.9080   2.9140   3.1836   3.1870   3.1886
  3.2189   3.2283   3.2452   3.3252   3.3900   3.3942   3.3944   3.4103
  3.4131   3.4515   3.4550   3.4574   3.6013   3.7612   3.7618   3.8383
  4.0730   4.0761  19.1412  19.2261  20.1195  56.6822
 --------------------------------------------------------------
 
          Ground-State Mulliken Net Atomic Charges

     Atom                 Charge (a.u.)
  ----------------------------------------
      1 C                     0.170295
      2 Si                   -0.633960
      3 C                     0.268482
      4 C                     0.170246
      5 H                     0.312527
      6 H                    -0.025866
      7 H                    -0.020962
      8 H                    -0.069120
      9 H                    -0.016192
     10 H                    -0.016190
     11 H                    -0.003182
     12 H                    -0.068920
     13 H                    -0.021151
     14 H                    -0.025772
     15 I                     0.225834
     16 C                     0.837053
     17 F                    -0.360327
     18 F                    -0.362476
     19 F                    -0.360319
  ----------------------------------------
  Sum of atomic charges =     0.000000

 -----------------------------------------------------------------
                    Cartesian Multipole Moments
 -----------------------------------------------------------------
    Charge (ESU x 10^10)
                -0.0000
    Dipole Moment (Debye)
         X       2.1588      Y      -0.0003      Z       0.1748
       Tot       2.1659
    Quadrupole Moments (Debye-Ang)
        XX     -81.4813     XY      -0.0008     YY     -84.0487
        XZ       0.9573     YZ      -0.0002     ZZ     -84.1851
    Octopole Moments (Debye-Ang^2)
       XXX     -78.1859    XXY       0.0033    XYY     -31.9039
       YYY       0.0169    XXZ       1.2855    XYZ      -0.0010
       YYZ      -8.1952    XZZ     -31.9173    YZZ       0.0057
       ZZZ     -10.4892
    Hexadecapole Moments (Debye-Ang^3)
      XXXX   -4075.3428   XXXY       0.0535   XXYY    -750.5877
      XYYY       0.0705   YYYY    -433.2450   XXXZ      33.4564
      XXYZ      -0.0247   XYYZ     -11.3940   YYYZ      -0.0051
      XXZZ    -738.7852   XYZZ       0.0049   YYZZ    -136.0067
      XZZZ      -1.7795   YZZZ      -0.0083   ZZZZ    -371.0509
 -----------------------------------------------------------------
 Calculating analytic gradient of the SCF energy
 Gradient of SCF Energy
            1           2           3           4           5           6
    1   0.0000174   0.0000524  -0.0000378   0.0000237  -0.0005293  -0.0000036
    2  -0.0000279  -0.0000046  -0.0000025   0.0000265   0.0000055  -0.0000102
    3   0.0000405   0.0003258  -0.0000255   0.0000474  -0.0002688  -0.0000028
            7           8           9          10          11          12
    1  -0.0000115   0.0000248   0.0000004  -0.0000005  -0.0000255   0.0000224
    2  -0.0000095   0.0000223  -0.0000016   0.0000020  -0.0000000  -0.0000244
    3  -0.0000134  -0.0000293  -0.0000046  -0.0000043   0.0000013  -0.0000313
           13          14          15          16          17          18
    1  -0.0000149  -0.0000045   0.0006275   0.0000804  -0.0000657  -0.0000904
    2   0.0000152   0.0000089   0.0000030  -0.0000081   0.0000253  -0.0000012
    3  -0.0000125  -0.0000063  -0.0000060  -0.0000729   0.0000417  -0.0000168
           19
    1  -0.0000654
    2  -0.0000186
    3   0.0000380
 Max gradient component =       6.275E-04
 RMS gradient           =       1.258E-04
 Gradient time:  CPU 198.61 s  wall 13.65 s
 Geometry Optimization Parameters
   NAtoms,    NIC,     NZ,  NCons,   NDum,   NFix, NCnnct, MaxDiis
       19     122       0       0       0       0       0       0

 Cartesian Hessian Update
 Hessian updated using BFGS update


** GEOMETRY OPTIMIZATION IN DELOCALIZED INTERNAL COORDINATES **
   Searching for a Minimum

   Optimization Cycle:   2

                       Coordinates (Angstroms)
     ATOM                X               Y               Z
      1  C         2.9407846933   -1.5493986461    1.0200347337
      2  Si        3.1579412599   -0.0001465522   -0.0287254818
      3  C         4.8339073716   -0.0005295467   -0.8868594594
      4  C         2.9417560617    1.5486423762    1.0209376007
      5  H         2.0942532498    0.0007122370   -1.0979902967
      6  H         3.0246305126   -2.4627932655    0.4094447395
      7  H         3.7118058535   -1.5995071293    1.8065191014
      8  H         1.9568165406   -1.5652460700    1.5153774717
      9  H         4.9565439069   -0.8905868163   -1.5243597989
     10  H         4.9572193099    0.8898230843   -1.5238169090
     11  H         5.6514964734   -0.0010660564   -0.1472122856
     12  H         1.9576921278    1.5647635191    1.5160944457
     13  H         3.7126539003    1.5980367968    1.8075764826
     14  H         3.0261314584    2.4622616539    0.4107498602
     15  I        -0.7565369233    0.0004391395   -0.3675800485
     16  C        -2.8227809187   -0.0002318906    0.1939478624
     17  F        -3.1162407197    1.0800965027    0.9185929210
     18  F        -3.6052620178   -0.0017173451   -0.8855442476
     19  F        -3.1150058202   -1.0794866925    0.9206627290
   Point Group: c1    Number of degrees of freedom:    51


   Energy is  -1044.583606140

 Hessian updated using BFGS update

 42 Hessian modes will be used to form the next step
  Hessian Eigenvalues:
     0.002000    0.002010    0.003276    0.003285    0.003331    0.007081
     0.035633    0.044684    0.046145    0.054304    0.054316    0.054539
     0.055021    0.055045    0.055115    0.108521    0.144895    0.145511
     0.147077    0.148131    0.155306    0.160104    0.175896    0.202044
     0.202163    0.205152    0.205229    0.205648    0.249996    0.253125
     0.334030    0.334046    0.334083    0.334734    0.334741    0.334783
     0.334991    0.334992    0.335525    0.586988    0.587334    0.589286

 Minimum search - taking simple RFO step
 Searching for Lamda that Minimizes Along All modes
 Value Taken    Lamda =  -0.00003700
 Step Taken.  Stepsize is  0.070827

                             Maximum     Tolerance    Cnvgd?
         Gradient           0.000428      0.000050      NO
         Displacement       0.042070      0.000050      NO
         Energy change     -0.000043      0.000000      NO


 New Cartesian Coordinates Obtained by Inverse Iteration

 Displacement from previous Coordinates is:  0.147356
 ----------------------------------------------------------------
             Standard Nuclear Orientation (Angstroms)
    I     Atom           X                Y                Z
 ----------------------------------------------------------------
    1      C       2.9520326187    -1.5490605221     1.0210227697
    2      Si      3.1677320460    -0.0002225886    -0.0285256645
    3      C       4.8433359177    -0.0004803705    -0.8878150638
    4      C       2.9527503543     1.5482907006     1.0216496105
    5      H       2.1028629676     0.0002678060    -1.0947315292
    6      H       3.0360607250    -2.4625913430     0.4107168712
    7      H       3.7239620470    -1.5982141623     1.8067441633
    8      H       1.9686342100    -1.5657240027     1.5176672029
    9      H       4.9655791570    -0.8905869551    -1.5253034635
   10      H       4.9660328754     0.8897826710    -1.5249976492
   11      H       5.6616875320    -0.0008160436    -0.1489362434
   12      H       1.9693248835     1.5651945361     1.5182357669
   13      H       3.7246467871     1.5968153864     1.8074383742
   14      H       3.0372033807     2.4620162556     0.4116914238
   15      I      -0.7862237217     0.0002862506    -0.3637977663
   16      C      -2.8526731526    -0.0001514493     0.1922622397
   17      F      -3.1470283208     1.0799877177     0.9166690262
   18      F      -3.6317516566    -0.0007575151    -0.8895574225
   19      F      -3.1463623304    -1.0799710728     0.9174167742
 ----------------------------------------------------------------
 Molecular Point Group                 C1    NOp =  1
 Largest Abelian Subgroup              C1    NOp =  1
 Nuclear Repulsion Energy =         693.32537840 hartrees
 There are       50 alpha and       50 beta electrons
 Applying Cartesian multipole field
    Component          Value
    ---------          -----
     (2,0,0)        1.00000E-12
     (0,2,0)        2.00000E-11
     (0,0,2)       -3.00000E-11
 Nucleus-field energy     =     0.0000000019 hartrees
 Requested basis set is def2-SVPD
 There are 122 shells and 288 basis functions
 A cutoff of  1.0D-14 yielded   6545 shell pairs
 There are     36549 function pairs (     41543 Cartesian)
 Requested basis set is def2-SVPD
 Compound shells will be simplified
 There are 122 shells and 288 basis functions
 A cutoff of  1.0D-14 yielded   6545 shell pairs
 There are     36549 function pairs (     41543 Cartesian)
 Smallest overlap matrix eigenvalue = 1.49E-04
 Attempting to make child job directory: /data/scratch/Me3SiH_ICF3_vfb_forward20240611170935//Frg1/
 Failed to make child job directory:     /data/scratch/Me3SiH_ICF3_vfb_forward20240611170935//Frg1/
 Attempting to make child job directory: /data/scratch/Me3SiH_ICF3_vfb_forward20240611170935//Frg2/
 Failed to make child job directory:     /data/scratch/Me3SiH_ICF3_vfb_forward20240611170935//Frg2/
 Creating input file /data/scratch/Me3SiH_ICF3_vfb_forward20240611170935/Frg1.input
 using default PutDataFrgm: nothing
 calling putenv with: QCSCRATCH=/data/scratch/Me3SiH_ICF3_vfb_forward20240611170935/ 
 Spawning Job For Fragment 0
 Done Job For Fragment 0
 calling putenv with: QCSCRATCH=/data/scratch 
 calling putenv with: QCTHREADS=16 
 Creating input file /data/scratch/Me3SiH_ICF3_vfb_forward20240611170935/Frg2.input
 using default PutDataFrgm: nothing
 calling putenv with: QCSCRATCH=/data/scratch/Me3SiH_ICF3_vfb_forward20240611170935/ 
 Spawning Job For Fragment 1
 Done Job For Fragment 1
 calling putenv with: QCSCRATCH=/data/scratch 
 calling putenv with: QCTHREADS=16 
 Time for running child jobs:  CPU 2.42 s  wall 32.50 s

 -----------------------------------------------------------------------
  General SCF calculation program by
  Eric Jon Sundstrom, Paul Horn, Yuezhi Mao, Dmitri Zuev, Alec White,
  David Stuck, Shaama M.S., Shane Yost, Joonho Lee, David Small,
  Daniel Levine, Susi Lehtola, Hugh Burton, Evgeny Epifanovsky,
  Bang C. Huynh
 -----------------------------------------------------------------------
Performing Restricted Closed Shell SCFMI
Doing General SCFMI
 Exchange:     0.1670 Hartree-Fock + 1.0000 wB97X-V + LR-HF
 Correlation:  1.0000 wB97X-V
 Using Euler-Maclaurin-Lebedev (75,302) quadrature formula
 Nonlocal Correlation:  VV10 with C = 0.0100 and b = 6.00 and scale = 1.00000
 Grid used for NLC:  SG-1 standard quadrature
performing fock build before subrot guess so that all methods have access
Printing subrot_rss_gen Method Specification:
Occupied Subspace Method is 0
Virtual Subspace Method is 0
Energy prior to optimization (guess energy) = -1044.581241524227
Begin Timing: Total SCF Calculation
begin iterations for algorithm: DIIS         
the SCF tolerance is set to 1.00e-09
    1   -1044.5812415242      1.28e-04     00000 
    2   -1044.5821694288      4.76e-05     00000 
    3   -1044.5822746817      2.31e-05     00000 
    4   -1044.5822946841      1.07e-05     00000 
    5   -1044.5822980059      6.30e-06     00000 
    6   -1044.5822990097      2.34e-06     00000 
    7   -1044.5822991188      9.22e-07     00000 
    8   -1044.5822991350      2.83e-07     00000 
    9   -1044.5822991371      1.39e-07     00000 
   10   -1044.5822991376      7.20e-08     00000 
   11   -1044.5822991377      2.52e-08     00000 
   12   -1044.5822991378      8.84e-09     00000 
   13   -1044.5822991378      2.95e-09     00000 
   14   -1044.5822991378      8.74e-10     00000 Convergence criterion met
write pseudocanon occs and virts to disk
write pseudocanon orbital energies to disk
Timing for Total SCF: 60.00s (wall), 944.17s (cpu)
SCFMI Energy   -1044.5822991378
<S^2>            0.00000
====================================================================
           Variational forward-backward (VFB) CT analysis           
 M. Loipersberger, Y. Mao and M. Head-Gordon, JCTC, 16, 1073 (2020) 
====================================================================
Calculating stabilization due to the forward (1->2) CT
Requested donor fragment: 1
updated OccSS dimension
        21
        29
updated VirtSS dimension
          238
           95
Energy prior to optimization (guess energy) = -1044.582299137772
Begin Timing: Total SCF Calculation
begin iterations for algorithm: DIIS         
the SCF tolerance is set to 1.00e-09
    1   -1044.5822991378      3.03e-04     00000 
    2   -1044.5835521867      3.14e-05     00000 
    3   -1044.5836191049      7.74e-06     00000 
    4   -1044.5836251927      4.79e-06     00000 
    5   -1044.5836263973      1.41e-06     00000 
    6   -1044.5836265593      5.26e-07     00000 
    7   -1044.5836265716      1.26e-07     00000 
    8   -1044.5836265735      4.05e-08     00000 
    9   -1044.5836265738      1.84e-08     00000 
   10   -1044.5836265739      6.06e-09     00000 
   11   -1044.5836265739      3.18e-09     00000 
   12   -1044.5836265739      8.81e-10     00000 Convergence criterion met
write pseudocanon occs and virts to disk
write pseudocanon orbital energies to disk
Timing for Total SCF: 50.00s (wall), 795.19s (cpu)
Energy of the one-side CT state:    -1044.5836265739
Stabilization due to one-side CT:    -3.4852 kJ/mol
<S^2>            0.00000
 Total energy in the final basis set =    -1044.5836265739
    ==================================================
        The end of Object-Oriented SCFman: SCFMI      
    ==================================================
 
 --------------------------------------------------------------
 
                    Orbital Energies (a.u.)
 --------------------------------------------------------------
 
 Alpha MOs
 -- Occupied --
-66.1309 -24.8354 -24.8354 -24.8353 -10.5866 -10.2722 -10.2713 -10.2713
 -6.9755  -5.3856  -5.0115  -4.9933  -4.9933  -3.7400  -3.7390  -3.7390
 -2.0641  -2.0585  -2.0584  -2.0433  -2.0433  -1.4651  -1.3690  -1.3690
 -0.8953  -0.8470  -0.8194  -0.8067  -0.8061  -0.7412  -0.7411  -0.6932
 -0.6137  -0.6137  -0.6024  -0.5757  -0.5757  -0.5511  -0.5363  -0.5232
 -0.5230  -0.5035  -0.5029  -0.4920  -0.4756  -0.4157  -0.4122  -0.4118
 -0.3876  -0.3873
 -- Virtual --
  0.0173   0.0680   0.0756   0.0805   0.0826   0.1039   0.1115   0.1121
  0.1367   0.1395   0.1483   0.1517   0.1537   0.1610   0.1694   0.1708
  0.1740   0.1788   0.1844   0.1917   0.1958   0.2021   0.2103   0.2133
  0.2134   0.2187   0.2253   0.2258   0.2410   0.2466   0.2540   0.2568
  0.2688   0.2731   0.2806   0.2906   0.2909   0.2996   0.3028   0.3043
  0.3198   0.3232   0.3291   0.3318   0.3343   0.3439   0.3545   0.3665
  0.3738   0.3743   0.3927   0.4003   0.4078   0.4104   0.4153   0.4181
  0.4268   0.4295   0.4356   0.4413   0.4469   0.4519   0.4528   0.4638
  0.4660   0.4720   0.4754   0.4760   0.4790   0.4850   0.4880   0.4937
  0.5149   0.5190   0.5270   0.5307   0.5368   0.5428   0.5481   0.5492
  0.5572   0.5610   0.5706   0.5719   0.5900   0.5912   0.6011   0.6089
  0.6126   0.6137   0.6258   0.6265   0.6351   0.6615   0.6672   0.6795
  0.6824   0.6861   0.7061   0.7093   0.7107   0.7277   0.7325   0.7423
  0.7512   0.7713   0.7719   0.7745   0.7848   0.8020   0.8246   0.8267
  0.8286   0.8456   0.8609   0.8778   0.8860   0.8880   0.9101   0.9101
  0.9289   0.9378   0.9515   0.9593   0.9685   0.9708   0.9885   1.0020
  1.0301   1.0309   1.0402   1.0559   1.0631   1.0795   1.0878   1.0908
  1.0933   1.1043   1.1143   1.1297   1.1538   1.1605   1.1753   1.1758
  1.1885   1.1947   1.2042   1.2442   1.2484   1.2692   1.2825   1.2840
  1.3247   1.3882   1.3941   1.4261   1.4541   1.6698   1.6850   1.6956
  1.7038   1.7202   1.7537   1.7759   1.7921   1.8066   1.8106   1.8115
  1.8173   1.8307   1.8354   1.8736   1.9222   1.9529   2.0108   2.0143
  2.0151   2.0223   2.0238   2.0265   2.0310   2.0581   2.0622   2.0843
  2.0992   2.1307   2.1420   2.1635   2.1874   2.1876   2.2016   2.2049
  2.2151   2.2291   2.2300   2.2350   2.2437   2.3332   2.3568   2.3820
  2.4138   2.4550   2.4802   2.4822   2.6100   2.6142   2.6158   2.6274
  2.6315   2.6446   2.9047   2.9079   2.9139   3.1835   3.1871   3.1884
  3.2191   3.2284   3.2452   3.3248   3.3896   3.3939   3.3942   3.4098
  3.4126   3.4512   3.4546   3.4569   3.6005   3.7609   3.7614   3.8385
  4.0725   4.0754  19.1381  19.2158  20.1130  56.6756
 --------------------------------------------------------------
 
          Ground-State Mulliken Net Atomic Charges

     Atom                 Charge (a.u.)
  ----------------------------------------
      1 C                     0.166841
      2 Si                   -0.636942
      3 C                     0.269131
      4 C                     0.166810
      5 H                     0.318939
      6 H                    -0.026180
      7 H                    -0.020896
      8 H                    -0.067678
      9 H                    -0.017189
     10 H                    -0.017195
     11 H                    -0.002895
     12 H                    -0.067601
     13 H                    -0.020939
     14 H                    -0.026164
     15 I                     0.224788
     16 C                     0.839347
     17 F                    -0.360054
     18 F                    -0.362066
     19 F                    -0.360056
  ----------------------------------------
  Sum of atomic charges =     0.000000

 -----------------------------------------------------------------
                    Cartesian Multipole Moments
 -----------------------------------------------------------------
    Charge (ESU x 10^10)
                 0.0000
    Dipole Moment (Debye)
         X       2.1226      Y      -0.0001      Z       0.1744
       Tot       2.1298
    Quadrupole Moments (Debye-Ang)
        XX     -81.5377     XY      -0.0006     YY     -84.0609
        XZ       0.9517     YZ      -0.0001     ZZ     -84.1976
    Octopole Moments (Debye-Ang^2)
       XXX     -75.2667    XXY       0.0075    XYY     -30.9150
       YYY       0.0273    XXZ       1.2546    XYZ      -0.0011
       YYZ      -8.2745    XZZ     -30.9413    YZZ       0.0081
       ZZZ     -10.6744
    Hexadecapole Moments (Debye-Ang^3)
      XXXX   -4122.1536   XXXY       0.0812   XXYY    -758.4458
      XYYY       0.0911   YYYY    -433.2873   XXXZ      32.6852
      XXYZ      -0.0163   XYYZ     -11.8222   YYYZ       0.0005
      XXZZ    -746.6409   XYZZ       0.0194   YYZZ    -135.9897
      XZZZ      -2.8106   YZZZ      -0.0048   ZZZZ    -370.8181
 -----------------------------------------------------------------
 Calculating analytic gradient of the SCF energy
 Gradient of SCF Energy
            1           2           3           4           5           6
    1  -0.0000412   0.0000637  -0.0000138  -0.0000381  -0.0000944  -0.0000029
    2   0.0000113   0.0000008  -0.0000007  -0.0000127  -0.0000001   0.0000153
    3  -0.0000590   0.0001413  -0.0000747  -0.0000564  -0.0000048  -0.0000012
            7           8           9          10          11          12
    1   0.0000095   0.0000087  -0.0000004  -0.0000000   0.0000098   0.0000084
    2   0.0000258  -0.0000149   0.0000047  -0.0000047   0.0000000   0.0000143
    3  -0.0000088   0.0000237   0.0000058   0.0000056   0.0000120   0.0000230
           13          14          15          16          17          18
    1   0.0000080  -0.0000033  -0.0001418   0.0000792   0.0000627   0.0000221
    2  -0.0000241  -0.0000153   0.0000015  -0.0000015   0.0001083   0.0000010
    3  -0.0000086  -0.0000023   0.0001338  -0.0001026   0.0000383  -0.0001056
           19
    1   0.0000638
    2  -0.0001089
    3   0.0000405
 Max gradient component =       1.418E-04
 RMS gradient           =       5.198E-05
 Gradient time:  CPU 200.75 s  wall 12.90 s
 Geometry Optimization Parameters
   NAtoms,    NIC,     NZ,  NCons,   NDum,   NFix, NCnnct, MaxDiis
       19     122       0       0       0       0       0       0

 Cartesian Hessian Update
 Hessian updated using BFGS update


** GEOMETRY OPTIMIZATION IN DELOCALIZED INTERNAL COORDINATES **
   Searching for a Minimum

   Optimization Cycle:   3

                       Coordinates (Angstroms)
     ATOM                X               Y               Z
      1  C         2.9520326187   -1.5490605221    1.0210227697
      2  Si        3.1677320460   -0.0002225886   -0.0285256645
      3  C         4.8433359177   -0.0004803705   -0.8878150638
      4  C         2.9527503543    1.5482907006    1.0216496105
      5  H         2.1028629676    0.0002678060   -1.0947315292
      6  H         3.0360607250   -2.4625913430    0.4107168712
      7  H         3.7239620470   -1.5982141623    1.8067441633
      8  H         1.9686342100   -1.5657240027    1.5176672029
      9  H         4.9655791570   -0.8905869551   -1.5253034635
     10  H         4.9660328754    0.8897826710   -1.5249976492
     11  H         5.6616875320   -0.0008160436   -0.1489362434
     12  H         1.9693248835    1.5651945361    1.5182357669
     13  H         3.7246467871    1.5968153864    1.8074383742
     14  H         3.0372033807    2.4620162556    0.4116914238
     15  I        -0.7862237217    0.0002862506   -0.3637977663
     16  C        -2.8526731526   -0.0001514493    0.1922622397
     17  F        -3.1470283208    1.0799877177    0.9166690262
     18  F        -3.6317516566   -0.0007575151   -0.8895574225
     19  F        -3.1463623304   -1.0799710728    0.9174167742
   Point Group: c1    Number of degrees of freedom:    51


   Energy is  -1044.583626574

 Hessian updated using BFGS update

 44 Hessian modes will be used to form the next step
  Hessian Eigenvalues:
     0.002000    0.002010    0.003265    0.003276    0.003331    0.005764
     0.035631    0.044685    0.046056    0.054306    0.054392    0.054542
     0.055021    0.055048    0.055115    0.112202    0.144895    0.145490
     0.147077    0.148117    0.159249    0.160100    0.161564    0.175692
     0.202043    0.202112    0.205152    0.205296    0.205850    0.250000
     0.250030    0.258542    0.334030    0.334048    0.334100    0.334738
     0.334756    0.334783    0.334992    0.334996    0.335597    0.586987
     0.587381    0.589079

 Minimum search - taking simple RFO step
 Searching for Lamda that Minimizes Along All modes
 Value Taken    Lamda =  -0.00000283
 Step Taken.  Stepsize is  0.017136

                             Maximum     Tolerance    Cnvgd?
         Gradient           0.000237      0.000050      NO
         Displacement       0.008704      0.000050      NO
         Energy change     -0.000020      0.000000      NO


 New Cartesian Coordinates Obtained by Inverse Iteration

 Displacement from previous Coordinates is:  0.035112
 ----------------------------------------------------------------
             Standard Nuclear Orientation (Angstroms)
    I     Atom           X                Y                Z
 ----------------------------------------------------------------
    1      C       2.9535780898    -1.5490546891     1.0198382916
    2      Si      3.1701695368    -0.0003138833    -0.0299308612
    3      C       4.8470587393    -0.0004217964    -0.8866436008
    4      C       2.9539942591     1.5481483867     1.0203324679
    5      H       2.1059722116     0.0000069534    -1.0965262973
    6      H       3.0393930091    -2.4627768242     0.4100346317
    7      H       3.7238075918    -1.5976436347     1.8072715086
    8      H       1.9690785870    -1.5661048072     1.5142925552
    9      H       4.9703357442    -0.8905373206    -1.5239416720
   10      H       4.9705902215     0.8898245096    -1.5237090276
   11      H       5.6643337962    -0.0006356648    -0.1466077123
   12      H       1.9694828311     1.5653061884     1.5147614829
   13      H       3.7242099401     1.5962732718     1.8078066077
   14      H       3.0400744832     2.4620447794     0.4108271104
   15      I      -0.7912473844     0.0002425384    -0.3635843289
   16      C      -2.8586718560    -0.0000257763     0.1937250386
   17      F      -3.1530844724     1.0797480986     0.9184570471
   18      F      -3.6385775139    -0.0003608502    -0.8873894569
   19      F      -3.1526914940    -1.0796541807     0.9188356358
 ----------------------------------------------------------------
 Molecular Point Group                 C1    NOp =  1
 Largest Abelian Subgroup              C1    NOp =  1
 Nuclear Repulsion Energy =         692.93843210 hartrees
 There are       50 alpha and       50 beta electrons
 Applying Cartesian multipole field
    Component          Value
    ---------          -----
     (2,0,0)        1.00000E-12
     (0,2,0)        2.00000E-11
     (0,0,2)       -3.00000E-11
 Nucleus-field energy     =     0.0000000020 hartrees
 Requested basis set is def2-SVPD
 There are 122 shells and 288 basis functions
 A cutoff of  1.0D-14 yielded   6542 shell pairs
 There are     36542 function pairs (     41536 Cartesian)
 Requested basis set is def2-SVPD
 Compound shells will be simplified
 There are 122 shells and 288 basis functions
 A cutoff of  1.0D-14 yielded   6542 shell pairs
 There are     36542 function pairs (     41536 Cartesian)
 Smallest overlap matrix eigenvalue = 1.49E-04
 Attempting to make child job directory: /data/scratch/Me3SiH_ICF3_vfb_forward20240611170935//Frg1/
 Failed to make child job directory:     /data/scratch/Me3SiH_ICF3_vfb_forward20240611170935//Frg1/
 Attempting to make child job directory: /data/scratch/Me3SiH_ICF3_vfb_forward20240611170935//Frg2/
 Failed to make child job directory:     /data/scratch/Me3SiH_ICF3_vfb_forward20240611170935//Frg2/
 Creating input file /data/scratch/Me3SiH_ICF3_vfb_forward20240611170935/Frg1.input
 using default PutDataFrgm: nothing
 calling putenv with: QCSCRATCH=/data/scratch/Me3SiH_ICF3_vfb_forward20240611170935/ 
 Spawning Job For Fragment 0
 Done Job For Fragment 0
 calling putenv with: QCSCRATCH=/data/scratch 
 calling putenv with: QCTHREADS=16 
 Creating input file /data/scratch/Me3SiH_ICF3_vfb_forward20240611170935/Frg2.input
 using default PutDataFrgm: nothing
 calling putenv with: QCSCRATCH=/data/scratch/Me3SiH_ICF3_vfb_forward20240611170935/ 
 Spawning Job For Fragment 1
 Done Job For Fragment 1
 calling putenv with: QCSCRATCH=/data/scratch 
 calling putenv with: QCTHREADS=16 
 Time for running child jobs:  CPU 2.13 s  wall 28.92 s

 -----------------------------------------------------------------------
  General SCF calculation program by
  Eric Jon Sundstrom, Paul Horn, Yuezhi Mao, Dmitri Zuev, Alec White,
  David Stuck, Shaama M.S., Shane Yost, Joonho Lee, David Small,
  Daniel Levine, Susi Lehtola, Hugh Burton, Evgeny Epifanovsky,
  Bang C. Huynh
 -----------------------------------------------------------------------
Performing Restricted Closed Shell SCFMI
Doing General SCFMI
 Exchange:     0.1670 Hartree-Fock + 1.0000 wB97X-V + LR-HF
 Correlation:  1.0000 wB97X-V
 Using Euler-Maclaurin-Lebedev (75,302) quadrature formula
 Nonlocal Correlation:  VV10 with C = 0.0100 and b = 6.00 and scale = 1.00000
 Grid used for NLC:  SG-1 standard quadrature
performing fock build before subrot guess so that all methods have access
Printing subrot_rss_gen Method Specification:
Occupied Subspace Method is 0
Virtual Subspace Method is 0
Energy prior to optimization (guess energy) = -1044.581287335427
Begin Timing: Total SCF Calculation
begin iterations for algorithm: DIIS         
the SCF tolerance is set to 1.00e-09
    1   -1044.5812873354      1.27e-04     00000 
    2   -1044.5822000191      4.73e-05     00000 
    3   -1044.5823036780      2.29e-05     00000 
    4   -1044.5823233926      1.06e-05     00000 
    5   -1044.5823266533      6.22e-06     00000 
    6   -1044.5823276309      2.29e-06     00000 
    7   -1044.5823277360      9.01e-07     00000 
    8   -1044.5823277516      2.74e-07     00000 
    9   -1044.5823277536      1.35e-07     00000 
   10   -1044.5823277540      6.94e-08     00000 
   11   -1044.5823277541      2.43e-08     00000 
   12   -1044.5823277542      8.51e-09     00000 
   13   -1044.5823277542      2.82e-09     00000 
   14   -1044.5823277542      8.28e-10     00000 Convergence criterion met
write pseudocanon occs and virts to disk
write pseudocanon orbital energies to disk
Timing for Total SCF: 59.00s (wall), 937.40s (cpu)
SCFMI Energy   -1044.5823277542
<S^2>            0.00000
====================================================================
           Variational forward-backward (VFB) CT analysis           
 M. Loipersberger, Y. Mao and M. Head-Gordon, JCTC, 16, 1073 (2020) 
====================================================================
Calculating stabilization due to the forward (1->2) CT
Requested donor fragment: 1
updated OccSS dimension
        21
        29
updated VirtSS dimension
          238
           95
Energy prior to optimization (guess energy) = -1044.582327754172
Begin Timing: Total SCF Calculation
begin iterations for algorithm: DIIS         
the SCF tolerance is set to 1.00e-09
    1   -1044.5823277542      3.00e-04     00000 
    2   -1044.5835554265      3.08e-05     00000 
    3   -1044.5836205715      7.59e-06     00000 
    4   -1044.5836264712      4.70e-06     00000 
    5   -1044.5836276350      1.39e-06     00000 
    6   -1044.5836277911      5.17e-07     00000 
    7   -1044.5836278030      1.23e-07     00000 
    8   -1044.5836278048      3.94e-08     00000 
    9   -1044.5836278051      1.79e-08     00000 
   10   -1044.5836278052      5.89e-09     00000 
   11   -1044.5836278052      3.10e-09     00000 
   12   -1044.5836278052      8.59e-10     00000 Convergence criterion met
write pseudocanon occs and virts to disk
write pseudocanon orbital energies to disk
Timing for Total SCF: 49.00s (wall), 790.60s (cpu)
Energy of the one-side CT state:    -1044.5836278052
Stabilization due to one-side CT:    -3.4133 kJ/mol
<S^2>            0.00000
 Total energy in the final basis set =    -1044.5836278052
    ==================================================
        The end of Object-Oriented SCFman: SCFMI      
    ==================================================
 
 --------------------------------------------------------------
 
                    Orbital Energies (a.u.)
 --------------------------------------------------------------
 
 Alpha MOs
 -- Occupied --
-66.1308 -24.8354 -24.8354 -24.8354 -10.5868 -10.2722 -10.2712 -10.2712
 -6.9756  -5.3856  -5.0116  -4.9934  -4.9934  -3.7399  -3.7389  -3.7389
 -2.0642  -2.0586  -2.0585  -2.0434  -2.0434  -1.4652  -1.3691  -1.3691
 -0.8952  -0.8470  -0.8194  -0.8066  -0.8060  -0.7412  -0.7412  -0.6933
 -0.6138  -0.6137  -0.6024  -0.5757  -0.5757  -0.5511  -0.5362  -0.5231
 -0.5229  -0.5035  -0.5029  -0.4919  -0.4755  -0.4158  -0.4121  -0.4117
 -0.3876  -0.3873
 -- Virtual --
  0.0169   0.0680   0.0756   0.0805   0.0826   0.1039   0.1115   0.1121
  0.1368   0.1394   0.1483   0.1517   0.1536   0.1610   0.1693   0.1709
  0.1739   0.1789   0.1843   0.1917   0.1958   0.2021   0.2103   0.2132
  0.2134   0.2185   0.2253   0.2257   0.2409   0.2466   0.2539   0.2566
  0.2686   0.2731   0.2805   0.2906   0.2908   0.2995   0.3028   0.3043
  0.3198   0.3231   0.3290   0.3316   0.3345   0.3440   0.3543   0.3666
  0.3736   0.3745   0.3927   0.4003   0.4078   0.4104   0.4153   0.4181
  0.4265   0.4293   0.4355   0.4413   0.4470   0.4519   0.4528   0.4637
  0.4659   0.4720   0.4754   0.4759   0.4791   0.4849   0.4879   0.4936
  0.5149   0.5188   0.5268   0.5306   0.5369   0.5427   0.5480   0.5492
  0.5569   0.5608   0.5705   0.5718   0.5900   0.5911   0.6012   0.6089
  0.6126   0.6137   0.6257   0.6263   0.6351   0.6614   0.6674   0.6792
  0.6821   0.6858   0.7058   0.7091   0.7105   0.7278   0.7324   0.7421
  0.7508   0.7713   0.7719   0.7747   0.7839   0.8020   0.8244   0.8263
  0.8286   0.8454   0.8606   0.8775   0.8860   0.8880   0.9099   0.9101
  0.9288   0.9376   0.9513   0.9592   0.9684   0.9707   0.9884   1.0020
  1.0299   1.0307   1.0400   1.0556   1.0629   1.0793   1.0878   1.0908
  1.0932   1.1043   1.1141   1.1295   1.1537   1.1602   1.1752   1.1757
  1.1883   1.1943   1.2043   1.2438   1.2484   1.2691   1.2822   1.2841
  1.3243   1.3879   1.3941   1.4260   1.4540   1.6696   1.6850   1.6954
  1.7038   1.7203   1.7537   1.7760   1.7922   1.8064   1.8106   1.8116
  1.8171   1.8308   1.8358   1.8727   1.9222   1.9527   2.0105   2.0142
  2.0150   2.0224   2.0238   2.0263   2.0310   2.0579   2.0621   2.0842
  2.0992   2.1306   2.1420   2.1635   2.1872   2.1874   2.2016   2.2052
  2.2151   2.2294   2.2303   2.2351   2.2436   2.3331   2.3564   2.3816
  2.4134   2.4550   2.4803   2.4823   2.6100   2.6142   2.6158   2.6275
  2.6315   2.6447   2.9047   2.9079   2.9139   3.1834   3.1871   3.1884
  3.2191   3.2285   3.2452   3.3245   3.3895   3.3937   3.3939   3.4097
  3.4124   3.4511   3.4546   3.4568   3.6010   3.7610   3.7616   3.8384
  4.0726   4.0755  19.1369  19.2142  20.1101  56.6732
 --------------------------------------------------------------
 
          Ground-State Mulliken Net Atomic Charges

     Atom                 Charge (a.u.)
  ----------------------------------------
      1 C                     0.166223
      2 Si                   -0.636985
      3 C                     0.269228
      4 C                     0.166213
      5 H                     0.320205
      6 H                    -0.026186
      7 H                    -0.021066
      8 H                    -0.067556
      9 H                    -0.017426
     10 H                    -0.017436
     11 H                    -0.002832
     12 H                    -0.067537
     13 H                    -0.021078
     14 H                    -0.026187
     15 I                     0.225088
     16 C                     0.839276
     17 F                    -0.359972
     18 F                    -0.362000
     19 F                    -0.359972
  ----------------------------------------
  Sum of atomic charges =     0.000000

 -----------------------------------------------------------------
                    Cartesian Multipole Moments
 -----------------------------------------------------------------
    Charge (ESU x 10^10)
                 0.0000
    Dipole Moment (Debye)
         X       2.1171      Y      -0.0001      Z       0.1716
       Tot       2.1240
    Quadrupole Moments (Debye-Ang)
        XX     -81.5592     XY      -0.0006     YY     -84.0657
        XZ       0.9491     YZ      -0.0002     ZZ     -84.2023
    Octopole Moments (Debye-Ang^2)
       XXX     -74.7129    XXY       0.0070    XYY     -30.7376
       YYY       0.0272    XXZ       1.2178    XYZ      -0.0009
       YYZ      -8.2919    XZZ     -30.7600    YZZ       0.0080
       ZZZ     -10.7176
    Hexadecapole Moments (Debye-Ang^3)
      XXXX   -4132.5162   XXXY       0.1279   XXYY    -760.0831
      XYYY       0.1391   YYYY    -433.2691   XXXZ      33.1523
      XXYZ      -0.0096   XYYZ     -11.6627   YYYZ       0.0061
      XXZZ    -748.2439   XYZZ       0.0383   YYZZ    -135.9457
      XZZZ      -2.2618   YZZZ       0.0003   ZZZZ    -370.5616
 -----------------------------------------------------------------
 Calculating analytic gradient of the SCF energy
 Gradient of SCF Energy
            1           2           3           4           5           6
    1  -0.0000324   0.0000385   0.0000110  -0.0000315  -0.0000423   0.0000013
    2   0.0000057   0.0000005   0.0000001  -0.0000063  -0.0000002   0.0000070
    3  -0.0000239  -0.0000366  -0.0000007  -0.0000241   0.0000471  -0.0000020
            7           8           9          10          11          12
    1   0.0000129   0.0000090  -0.0000065  -0.0000060   0.0000140   0.0000086
    2   0.0000082  -0.0000091  -0.0000008   0.0000006   0.0000000   0.0000088
    3   0.0000017   0.0000117   0.0000038   0.0000037  -0.0000062   0.0000116
           13          14          15          16          17          18
    1   0.0000125   0.0000011   0.0002327   0.0000830  -0.0001051  -0.0000957
    2  -0.0000081  -0.0000070   0.0000012   0.0000005  -0.0000194  -0.0000007
    3   0.0000016  -0.0000020   0.0000215  -0.0001056   0.0000224   0.0000537
           19
    1  -0.0001052
    2   0.0000188
    3   0.0000223
 Max gradient component =       2.327E-04
 RMS gradient           =       4.593E-05
 Gradient time:  CPU 197.74 s  wall 12.66 s
 Geometry Optimization Parameters
   NAtoms,    NIC,     NZ,  NCons,   NDum,   NFix, NCnnct, MaxDiis
       19     122       0       0       0       0       0       0

 Cartesian Hessian Update
 Hessian updated using BFGS update


** GEOMETRY OPTIMIZATION IN DELOCALIZED INTERNAL COORDINATES **
   Searching for a Minimum

   Optimization Cycle:   4

                       Coordinates (Angstroms)
     ATOM                X               Y               Z
      1  C         2.9535780898   -1.5490546891    1.0198382916
      2  Si        3.1701695368   -0.0003138833   -0.0299308612
      3  C         4.8470587393   -0.0004217964   -0.8866436008
      4  C         2.9539942591    1.5481483867    1.0203324679
      5  H         2.1059722116    0.0000069534   -1.0965262973
      6  H         3.0393930091   -2.4627768242    0.4100346317
      7  H         3.7238075918   -1.5976436347    1.8072715086
      8  H         1.9690785870   -1.5661048072    1.5142925552
      9  H         4.9703357442   -0.8905373206   -1.5239416720
     10  H         4.9705902215    0.8898245096   -1.5237090276
     11  H         5.6643337962   -0.0006356648   -0.1466077123
     12  H         1.9694828311    1.5653061884    1.5147614829
     13  H         3.7242099401    1.5962732718    1.8078066077
     14  H         3.0400744832    2.4620447794    0.4108271104
     15  I        -0.7912473844    0.0002425384   -0.3635843289
     16  C        -2.8586718560   -0.0000257763    0.1937250386
     17  F        -3.1530844724    1.0797480986    0.9184570471
     18  F        -3.6385775139   -0.0003608502   -0.8873894569
     19  F        -3.1526914940   -1.0796541807    0.9188356358
   Point Group: c1    Number of degrees of freedom:    51


   Energy is  -1044.583627805

 Hessian updated using BFGS update

 45 Hessian modes will be used to form the next step
  Hessian Eigenvalues:
     0.002000    0.002009    0.003028    0.003276    0.003331    0.004920
     0.035433    0.044685    0.045513    0.054021    0.054308    0.054557
     0.055022    0.055048    0.055115    0.126226    0.144891    0.145078
     0.147070    0.147359    0.152968    0.159947    0.160087    0.161407
     0.174711    0.195748    0.202045    0.205152    0.205259    0.205682
     0.249995    0.250000    0.333829    0.334026    0.334035    0.334677
     0.334739    0.334783    0.334971    0.334992    0.335261    0.370059
     0.585821    0.586989    0.587643

 Minimum search - taking simple RFO step
 Searching for Lamda that Minimizes Along All modes
 Value Taken    Lamda =  -0.00000098
 Step Taken.  Stepsize is  0.007018

                             Maximum     Tolerance    Cnvgd?
         Gradient           0.000251      0.000050      NO
         Displacement       0.003146      0.000050      NO
         Energy change     -0.000001      0.000000      NO


 New Cartesian Coordinates Obtained by Inverse Iteration

 Displacement from previous Coordinates is:  0.018130
 ----------------------------------------------------------------
             Standard Nuclear Orientation (Angstroms)
    I     Atom           X                Y                Z
 ----------------------------------------------------------------
    1      C       2.9528817298    -1.5490695784     1.0186979876
    2      Si      3.1705908365    -0.0003567184    -0.0310385358
    3      C       4.8485509249    -0.0004001221    -0.8855608163
    4      C       2.9531648396     1.5481093929     1.0191211652
    5      H       2.1073356666    -0.0001134261    -1.0986363313
    6      H       3.0401829432    -2.4629178472     0.4092697390
    7      H       3.7215091730    -1.5972984255     1.8076982279
    8      H       1.9673682992    -1.5663363498     1.5111181668
    9      H       4.9727824660    -0.8905179315    -1.5226844565
   10      H       4.9729441035     0.8898384603    -1.5224833722
   11      H       5.6647563736    -0.0005585180    -0.1443738924
   12      H       1.9676495197     1.5654272081     1.5115367440
   13      H       3.7217916101     1.5959640872     1.8081452830
   14      H       3.0406513888     2.4621144101     0.4099551829
   15      I      -0.7922945909     0.0002157598    -0.3637305985
   16      C      -2.8587892126     0.0000252010     0.1953037533
   17      F      -3.1521112843     1.0798187219     0.9203628967
   18      F      -3.6392875941    -0.0001278021    -0.8853391318
   19      F      -3.1518708727    -1.0797512234     0.9204874089
 ----------------------------------------------------------------
 Molecular Point Group                 C1    NOp =  1
 Largest Abelian Subgroup              C1    NOp =  1
 Nuclear Repulsion Energy =         692.95157146 hartrees
 There are       50 alpha and       50 beta electrons
 Applying Cartesian multipole field
    Component          Value
    ---------          -----
     (2,0,0)        1.00000E-12
     (0,2,0)        2.00000E-11
     (0,0,2)       -3.00000E-11
 Nucleus-field energy     =     0.0000000020 hartrees
 Requested basis set is def2-SVPD
 There are 122 shells and 288 basis functions
 A cutoff of  1.0D-14 yielded   6542 shell pairs
 There are     36542 function pairs (     41536 Cartesian)
 Requested basis set is def2-SVPD
 Compound shells will be simplified
 There are 122 shells and 288 basis functions
 A cutoff of  1.0D-14 yielded   6542 shell pairs
 There are     36542 function pairs (     41536 Cartesian)
 Smallest overlap matrix eigenvalue = 1.50E-04
 Attempting to make child job directory: /data/scratch/Me3SiH_ICF3_vfb_forward20240611170935//Frg1/
 Failed to make child job directory:     /data/scratch/Me3SiH_ICF3_vfb_forward20240611170935//Frg1/
 Attempting to make child job directory: /data/scratch/Me3SiH_ICF3_vfb_forward20240611170935//Frg2/
 Failed to make child job directory:     /data/scratch/Me3SiH_ICF3_vfb_forward20240611170935//Frg2/
 Creating input file /data/scratch/Me3SiH_ICF3_vfb_forward20240611170935/Frg1.input
 using default PutDataFrgm: nothing
 calling putenv with: QCSCRATCH=/data/scratch/Me3SiH_ICF3_vfb_forward20240611170935/ 
 Spawning Job For Fragment 0
 Done Job For Fragment 0
 calling putenv with: QCSCRATCH=/data/scratch 
 calling putenv with: QCTHREADS=16 
 Creating input file /data/scratch/Me3SiH_ICF3_vfb_forward20240611170935/Frg2.input
 using default PutDataFrgm: nothing
 calling putenv with: QCSCRATCH=/data/scratch/Me3SiH_ICF3_vfb_forward20240611170935/ 
 Spawning Job For Fragment 1
 Done Job For Fragment 1
 calling putenv with: QCSCRATCH=/data/scratch 
 calling putenv with: QCTHREADS=16 
 Time for running child jobs:  CPU 2.16 s  wall 28.78 s

 -----------------------------------------------------------------------
  General SCF calculation program by
  Eric Jon Sundstrom, Paul Horn, Yuezhi Mao, Dmitri Zuev, Alec White,
  David Stuck, Shaama M.S., Shane Yost, Joonho Lee, David Small,
  Daniel Levine, Susi Lehtola, Hugh Burton, Evgeny Epifanovsky,
  Bang C. Huynh
 -----------------------------------------------------------------------
Performing Restricted Closed Shell SCFMI
Doing General SCFMI
 Exchange:     0.1670 Hartree-Fock + 1.0000 wB97X-V + LR-HF
 Correlation:  1.0000 wB97X-V
 Using Euler-Maclaurin-Lebedev (75,302) quadrature formula
 Nonlocal Correlation:  VV10 with C = 0.0100 and b = 6.00 and scale = 1.00000
 Grid used for NLC:  SG-1 standard quadrature
performing fock build before subrot guess so that all methods have access
Printing subrot_rss_gen Method Specification:
Occupied Subspace Method is 0
Virtual Subspace Method is 0
Energy prior to optimization (guess energy) = -1044.581302726613
Begin Timing: Total SCF Calculation
begin iterations for algorithm: DIIS         
the SCF tolerance is set to 1.00e-09
    1   -1044.5813027266      1.26e-04     00000 
    2   -1044.5822104541      4.72e-05     00000 
    3   -1044.5823135341      2.28e-05     00000 
    4   -1044.5823331585      1.06e-05     00000 
    5   -1044.5823364008      6.21e-06     00000 
    6   -1044.5823373721      2.29e-06     00000 
    7   -1044.5823374761      8.98e-07     00000 
    8   -1044.5823374916      2.73e-07     00000 
    9   -1044.5823374936      1.34e-07     00000 
   10   -1044.5823374940      6.92e-08     00000 
   11   -1044.5823374942      2.42e-08     00000 
   12   -1044.5823374942      8.46e-09     00000 
[...]
 F         -0.000  0.000 -0.000   -0.000 -0.000  0.000   -0.002  0.000 -0.003
 F         -0.000 -0.000  0.000   -0.000  0.000 -0.000   -0.001 -0.004  0.002
 TransDip   0.000 -0.126  0.000   -0.075  0.000  0.127    0.305  0.000  0.131

 Mode:                28                     29                     30
 Frequency:       912.59                 933.46                1110.46
 Force Cnst:      0.6542                 0.6452                 9.5290
 Red. Mass:       1.3333                 1.2568                13.1157
 IR Active:          YES                    YES                    YES
 IR Intens:      136.637                232.806                629.047
 Raman Active:       YES                    YES                    YES
               X      Y      Z        X      Y      Z        X      Y      Z
 C          0.032  0.044  0.041    0.045 -0.004 -0.011    0.013  0.004 -0.000
 Si         0.000 -0.084 -0.000   -0.046 -0.000  0.055   -0.010  0.000  0.002
 C          0.000  0.055  0.000   -0.022  0.000 -0.071    0.004 -0.000  0.001
 C         -0.032  0.044 -0.041    0.045  0.004 -0.011    0.013 -0.004 -0.000
 H         -0.000  0.802  0.000    0.608  0.000 -0.598    0.076  0.000 -0.126
 H         -0.011  0.189 -0.188   -0.075 -0.028  0.017   -0.024 -0.001  0.002
 H         -0.013 -0.186  0.059   -0.060 -0.038  0.083   -0.034 -0.042  0.040
 H         -0.041  0.009 -0.116   -0.006  0.173 -0.099    0.005  0.010 -0.009
 H         -0.155 -0.054  0.110    0.202 -0.020  0.004    0.003  0.004 -0.005
 H          0.155 -0.054 -0.110    0.202  0.020  0.004    0.003 -0.004 -0.005
 H          0.000 -0.099 -0.000   -0.201 -0.000  0.135    0.015  0.000 -0.011
 H          0.041  0.009  0.116   -0.006 -0.173 -0.100    0.005 -0.010 -0.009
 H          0.013 -0.186 -0.059   -0.060  0.038  0.083   -0.034  0.042  0.040
 H          0.011  0.189  0.188   -0.075  0.028  0.017   -0.024  0.001  0.002
 I         -0.000 -0.000 -0.000   -0.000 -0.000  0.000   -0.011 -0.000  0.003
 C          0.000  0.000 -0.000   -0.010 -0.000  0.003    0.836  0.000 -0.242
 F         -0.000  0.001  0.001    0.002 -0.004 -0.002   -0.126  0.183  0.145
 F         -0.000 -0.000 -0.000    0.001 -0.000  0.002   -0.209 -0.000 -0.156
 F          0.000  0.001 -0.001    0.002  0.004 -0.002   -0.126 -0.183  0.145
 TransDip   0.000 -0.374 -0.000   -0.403 -0.000  0.276    0.784  0.000 -0.173

 Mode:                31                     32                     33
 Frequency:      1199.83                1200.74                1272.91
 Force Cnst:     11.2680                11.2860                 1.2260
 Red. Mass:      13.2850                13.2858                 1.2842
 IR Active:          YES                    YES                    YES
 IR Intens:      235.022                237.070                 42.056
 Raman Active:       YES                    YES                    YES
               X      Y      Z        X      Y      Z        X      Y      Z
 C          0.001  0.003 -0.002   -0.002 -0.002  0.002   -0.009 -0.047  0.035
 Si        -0.000 -0.000  0.000    0.001 -0.000 -0.000    0.011  0.000 -0.011
 C          0.000 -0.000 -0.000   -0.000 -0.000  0.000   -0.119 -0.000  0.059
 C         -0.001  0.003  0.002   -0.002  0.002  0.002   -0.009  0.046  0.034
 H          0.000  0.010 -0.000   -0.011  0.000  0.011   -0.013 -0.000  0.015
 H         -0.006 -0.007  0.011    0.005  0.004 -0.007    0.042  0.109 -0.184
 H         -0.007 -0.011  0.006    0.010  0.009 -0.008    0.103  0.180 -0.066
 H          0.004 -0.011  0.004   -0.005  0.008 -0.005   -0.067  0.183 -0.087
 H          0.001  0.000 -0.001    0.002  0.001 -0.000    0.436  0.181 -0.100
 H         -0.001  0.000  0.001    0.002 -0.001 -0.000    0.436 -0.181 -0.100
 H         -0.000  0.000  0.000    0.001  0.000 -0.001    0.303  0.000 -0.380
 H         -0.004 -0.011 -0.004   -0.005 -0.008 -0.005   -0.066 -0.178 -0.085
 H          0.007 -0.011 -0.006    0.010 -0.009 -0.008    0.101 -0.175 -0.065
 H          0.006 -0.007 -0.011    0.005 -0.004 -0.007    0.041 -0.106 -0.179
 I          0.000 -0.001  0.000   -0.000 -0.000 -0.001   -0.000 -0.000  0.000
 C         -0.000  0.902 -0.000    0.251  0.000  0.866    0.002  0.000 -0.002
 F          0.079 -0.254 -0.143    0.030 -0.115 -0.131   -0.000  0.001  0.001
 F          0.000 -0.052  0.000   -0.216  0.000 -0.276   -0.000 -0.000  0.000
 F         -0.079 -0.254  0.143    0.030  0.115 -0.131   -0.000 -0.001  0.001
 TransDip  -0.000  0.491 -0.000    0.144  0.000  0.472    0.142  0.001 -0.152

 Mode:                34                     35                     36
 Frequency:      1273.24                1281.12                1424.71
 Force Cnst:      1.2251                 1.2066                 1.2581
 Red. Mass:       1.2826                 1.2477                 1.0520
 IR Active:          YES                    YES                    YES
 IR Intens:       46.141                 10.840                  0.110
 Raman Active:       YES                    YES                    YES
               X      Y      Z        X      Y      Z        X      Y      Z
 C         -0.012 -0.092  0.060    0.009  0.072 -0.050   -0.020  0.019  0.023
 Si        -0.000  0.016  0.000    0.002  0.000  0.004   -0.000  0.000  0.000
 C          0.001 -0.004 -0.000   -0.071 -0.000  0.033   -0.000 -0.038 -0.000
 C          0.012 -0.092 -0.060    0.009 -0.072 -0.050    0.020  0.019 -0.023
 H          0.000 -0.019 -0.000    0.013 -0.000  0.010    0.000 -0.001 -0.000
 H          0.060  0.195 -0.343   -0.046 -0.171  0.293    0.153 -0.086  0.194
 H          0.171  0.351 -0.102   -0.150 -0.293  0.090    0.258 -0.197 -0.258
 H         -0.115  0.354 -0.155    0.102 -0.295  0.142   -0.146  0.037 -0.245
 H         -0.003  0.001 -0.008    0.277  0.107 -0.057   -0.248  0.032 -0.137
 H         -0.003  0.004  0.009    0.277 -0.107 -0.057    0.248  0.032  0.137
 H         -0.002  0.017  0.003    0.188  0.000 -0.237    0.000  0.434  0.000
 H          0.116  0.356  0.156    0.102  0.295  0.143    0.146  0.037  0.245
 H         -0.172  0.353  0.103   -0.150  0.294  0.090   -0.258 -0.197  0.258
 H         -0.061  0.196  0.345   -0.046  0.171  0.293   -0.153 -0.085 -0.194
 I          0.000 -0.000 -0.000    0.000  0.000 -0.000   -0.000 -0.000 -0.000
 C         -0.000  0.003  0.000   -0.003  0.000  0.003    0.000  0.000 -0.000
 F          0.000 -0.001 -0.000    0.001 -0.001 -0.001   -0.000 -0.000  0.000
 F          0.000 -0.000 -0.000    0.000  0.000 -0.000   -0.000 -0.000 -0.000
 F         -0.000 -0.001  0.000    0.001  0.001 -0.001    0.000 -0.000 -0.000
 TransDip  -0.001  0.218  0.001    0.063  0.000  0.084   -0.000  0.011 -0.000

 Mode:                37                     38                     39
 Frequency:      1427.37                1428.41                1436.47
 Force Cnst:      1.2599                 1.2617                 1.2718
 Red. Mass:       1.0495                 1.0496                 1.0461
 IR Active:          YES                    YES                    YES
 IR Intens:        0.179                  0.252                  2.396
 Raman Active:       YES                    YES                    YES
               X      Y      Z        X      Y      Z        X      Y      Z
 C         -0.039 -0.006 -0.016    0.009  0.015  0.023    0.002 -0.014 -0.023
 Si        -0.000  0.001 -0.000   -0.000  0.000  0.001    0.000 -0.008 -0.000
 C          0.000  0.016  0.000   -0.020  0.000 -0.042   -0.000 -0.044 -0.000
 C          0.039 -0.006  0.016    0.009 -0.015  0.023   -0.001 -0.013  0.023
 H          0.000  0.009 -0.000   -0.006 -0.000  0.006   -0.000  0.029  0.000
 H          0.483  0.021  0.027   -0.171 -0.069  0.110    0.047  0.077 -0.143
 H         -0.032 -0.268 -0.025    0.183  0.022 -0.151   -0.217  0.054  0.195
 H          0.073  0.326  0.208   -0.132 -0.153 -0.274    0.141  0.072  0.270
 H          0.114 -0.014  0.059    0.056 -0.293  0.392   -0.326  0.038 -0.168
 H         -0.114 -0.014 -0.059    0.056  0.293  0.392    0.327  0.040  0.171
 H         -0.000 -0.194 -0.000    0.159 -0.000 -0.220    0.001  0.548 -0.001
 H         -0.073  0.326 -0.208   -0.132  0.154 -0.274   -0.139  0.075 -0.266
 H          0.032 -0.268  0.025    0.183 -0.022 -0.151    0.212  0.048 -0.190
 H         -0.483  0.021 -0.027   -0.171  0.069  0.110   -0.054  0.076  0.138
 I          0.000  0.000  0.000   -0.000 -0.000  0.000    0.000  0.000 -0.000
 C         -0.000  0.000  0.000    0.001  0.000 -0.001   -0.000 -0.000  0.000
 F          0.000 -0.000 -0.000   -0.000  0.000  0.000    0.000 -0.000 -0.000
 F         -0.000 -0.000 -0.000   -0.000 -0.000 -0.000    0.000  0.000  0.000
 F         -0.000 -0.000  0.000   -0.000 -0.000  0.000   -0.000 -0.000  0.000
 TransDip   0.000 -0.014 -0.000   -0.016 -0.000 -0.003   -0.000  0.050  0.001

 Mode:                40                     41                     42
 Frequency:      1436.57                1444.63                2167.74
 Force Cnst:      1.2719                 1.2837                 2.8755
 Red. Mass:       1.0460                 1.0440                 1.0386
 IR Active:          YES                    YES                    YES
 IR Intens:        3.746                  9.994                311.086
 Raman Active:       YES                    YES                    YES
               X      Y      Z        X      Y      Z        X      Y      Z
 C         -0.031  0.017  0.017   -0.024 -0.010 -0.017   -0.001 -0.000 -0.001
 Si        -0.006 -0.000  0.005   -0.006  0.000 -0.007   -0.024  0.000 -0.024
 C          0.009 -0.000  0.014   -0.014  0.000 -0.030   -0.001  0.000 -0.001
 C         -0.031 -0.017  0.017   -0.024  0.010 -0.017   -0.001  0.000 -0.001
 H          0.021  0.000 -0.022   -0.006 -0.000 -0.003    0.705 -0.000  0.708
 H          0.314 -0.090  0.219    0.358  0.050 -0.045    0.001 -0.002 -0.003
 H          0.253 -0.295 -0.272   -0.108 -0.172  0.062   -0.000  0.007 -0.006
 H         -0.126  0.151 -0.191    0.103  0.266  0.245   -0.003  0.002  0.000
 H         -0.030  0.107 -0.146    0.036 -0.234  0.313   -0.001 -0.003 -0.002
 H         -0.023 -0.106 -0.143    0.036  0.234  0.313   -0.001  0.003 -0.002
 H         -0.064  0.005  0.089    0.134  0.000 -0.181   -0.010 -0.000  0.004
 H         -0.129 -0.150 -0.196    0.103 -0.267  0.244   -0.003 -0.002  0.000
 H          0.257  0.296 -0.276   -0.108  0.172  0.062   -0.000 -0.007 -0.006
 H          0.313  0.092  0.221    0.358 -0.050 -0.045    0.001  0.002 -0.003
 I         -0.000  0.000  0.000    0.000 -0.000 -0.000    0.000 -0.000 -0.000
 C          0.001 -0.000 -0.001   -0.000  0.000  0.000    0.002  0.000 -0.001
 F         -0.000  0.000  0.000    0.000 -0.000 -0.000   -0.000  0.000  0.000
 F         -0.000  0.000 -0.000   -0.000 -0.000 -0.000   -0.001 -0.000 -0.000
 F         -0.000 -0.000  0.000    0.000  0.000 -0.000   -0.000 -0.000  0.000
 TransDip   0.023  0.001 -0.058    0.070 -0.000  0.073   -0.500  0.000 -0.264

 Mode:                43                     44                     45
 Frequency:      3047.12                3047.36                3048.17
 Force Cnst:      5.6733                 5.6749                 5.6764
 Red. Mass:       1.0371                 1.0372                 1.0369
 IR Active:          YES                    YES                    YES
 IR Intens:        2.351                  3.899                  4.425
 Raman Active:       YES                    YES                    YES
               X      Y      Z        X      Y      Z        X      Y      Z
 C         -0.002 -0.029  0.022    0.002  0.029 -0.022    0.000 -0.003  0.002
 Si         0.000  0.000 -0.001    0.000 -0.001 -0.000    0.001  0.000 -0.001
 C          0.004  0.000 -0.002    0.000 -0.000 -0.000   -0.048 -0.000  0.019
 C         -0.002  0.029  0.022   -0.002  0.029  0.022    0.000  0.003  0.002
 H          0.000 -0.000  0.001    0.000  0.001  0.000   -0.002  0.000  0.000
 H         -0.034  0.325  0.227    0.034 -0.321 -0.225   -0.003  0.030  0.021
 H         -0.300  0.012 -0.307    0.302 -0.012  0.308   -0.027  0.001 -0.027
 H          0.355 -0.001 -0.169   -0.356  0.001  0.170    0.028 -0.001 -0.013
 H         -0.005  0.040  0.029   -0.001  0.003  0.003    0.054 -0.453 -0.319
 H         -0.005 -0.040  0.029    0.001  0.003 -0.002    0.054  0.453 -0.318
 H         -0.037  0.000 -0.035   -0.000 -0.000 -0.000    0.439 -0.000  0.422
 H          0.353  0.001 -0.168    0.358  0.001 -0.170    0.028  0.001 -0.013
 H         -0.299 -0.012 -0.306   -0.303 -0.012 -0.310   -0.027 -0.001 -0.027
 H         -0.034 -0.324  0.225   -0.034 -0.322  0.226   -0.003 -0.030  0.021
 I         -0.000  0.000 -0.000   -0.000  0.000 -0.000    0.000 -0.000  0.000
 C         -0.000  0.000 -0.000   -0.000 -0.000 -0.000    0.000  0.000 -0.000
 F          0.000 -0.000 -0.000    0.000 -0.000 -0.000   -0.000  0.000  0.000
 F          0.000 -0.000  0.000   -0.000  0.000  0.000   -0.000  0.000 -0.000
 F          0.000  0.000 -0.000   -0.000 -0.000  0.000   -0.000 -0.000  0.000
 TransDip   0.011 -0.000  0.048    0.000  0.063  0.000   -0.063  0.000  0.024

 Mode:                46                     47                     48
 Frequency:      3138.28                3138.94                3141.13
 Force Cnst:      6.3921                 6.3939                 6.4025
 Red. Mass:       1.1016                 1.1014                 1.1014
 IR Active:          YES                    YES                    YES
 IR Intens:        0.654                 10.077                 16.160
 Raman Active:       YES                    YES                    YES
               X      Y      Z        X      Y      Z        X      Y      Z
 C         -0.053 -0.018 -0.034   -0.045 -0.020 -0.035   -0.021 -0.005 -0.010
 Si        -0.000 -0.000 -0.000   -0.001  0.000 -0.000   -0.001  0.000 -0.001
 C          0.000  0.004  0.000    0.014 -0.000  0.030   -0.036  0.000 -0.078
 C          0.052 -0.018  0.034   -0.045  0.020 -0.035   -0.021  0.005 -0.010
 H          0.000 -0.001  0.000    0.003  0.000  0.004    0.005 -0.000  0.005
 H         -0.034  0.245  0.159   -0.034  0.261  0.170   -0.010  0.065  0.041
 H          0.383 -0.028  0.402    0.357 -0.028  0.374    0.139 -0.011  0.149
 H          0.282  0.002 -0.149    0.222  0.001 -0.119    0.127  0.002 -0.065
 H          0.003 -0.022 -0.016    0.021 -0.129 -0.087   -0.055  0.329  0.223
 H         -0.003 -0.022  0.016    0.021  0.129 -0.087   -0.055 -0.329  0.222
 H         -0.000  0.001 -0.000   -0.208  0.000 -0.191    0.541 -0.000  0.491
 H         -0.281  0.002  0.148    0.223 -0.001 -0.120    0.127 -0.002 -0.065
 H         -0.381 -0.028 -0.401    0.358  0.028  0.375    0.140  0.011  0.149
 H          0.034  0.244 -0.158   -0.034 -0.262  0.171   -0.010 -0.065  0.041
 I         -0.000 -0.000  0.000   -0.000  0.000  0.000   -0.000  0.000  0.000
 C          0.000  0.000 -0.000    0.000 -0.000 -0.000    0.000  0.000 -0.000
 F         -0.000  0.000  0.000   -0.000  0.000  0.000   -0.000  0.000  0.000
 F         -0.000 -0.000 -0.000   -0.000  0.000 -0.000   -0.000 -0.000 -0.000
 F          0.000  0.000 -0.000   -0.000 -0.000  0.000   -0.000 -0.000  0.000
 TransDip  -0.000 -0.026 -0.000   -0.093  0.000 -0.040   -0.081  0.000 -0.100

 Mode:                49                     50                     51
 Frequency:      3144.26                3144.70                3146.48
 Force Cnst:      6.4179                 6.4187                 6.4276
 Red. Mass:       1.1018                 1.1016                 1.1019
 IR Active:          YES                    YES                    YES
 IR Intens:        3.085                 12.948                  9.566
 Raman Active:       YES                    YES                    YES
               X      Y      Z        X      Y      Z        X      Y      Z
 C          0.038 -0.033 -0.040   -0.041  0.032  0.039    0.003 -0.005 -0.007
 Si        -0.000 -0.000  0.000   -0.000  0.000  0.001    0.000 -0.001 -0.000
 C          0.000  0.013  0.000    0.003 -0.000  0.007    0.000 -0.092 -0.000
 C         -0.038 -0.033  0.041   -0.041 -0.032  0.039   -0.003 -0.005  0.007
 H          0.000  0.001 -0.000    0.001 -0.000 -0.001   -0.000  0.002  0.000
 H         -0.036  0.415  0.273    0.034 -0.403 -0.265   -0.006  0.069  0.045
 H          0.014 -0.006  0.001    0.005  0.005  0.018    0.015 -0.002  0.014
 H         -0.437 -0.013  0.211    0.459  0.015 -0.222   -0.047 -0.002  0.022
 H          0.011 -0.077 -0.056    0.006 -0.032 -0.022   -0.084  0.557  0.410
 H         -0.011 -0.077  0.056    0.006  0.032 -0.023    0.085  0.558 -0.409
 H         -0.000  0.002 -0.000   -0.046  0.000 -0.042   -0.000 -0.015 -0.000
 H          0.439 -0.013 -0.212    0.457 -0.014 -0.221    0.047 -0.002 -0.022
 H         -0.014 -0.006 -0.001    0.005 -0.005  0.018   -0.015 -0.002 -0.014
 H          0.036  0.417 -0.274    0.034  0.402 -0.264    0.006  0.069 -0.045
 I         -0.000 -0.000  0.000   -0.000  0.000  0.000    0.000 -0.000 -0.000
 C          0.000 -0.000 -0.000    0.000  0.000 -0.000   -0.000 -0.000  0.000
 F          0.000  0.000  0.000   -0.000  0.000  0.000   -0.000  0.000  0.000
 F         -0.000  0.000 -0.000   -0.000 -0.000 -0.000    0.000  0.000  0.000
 F         -0.000  0.000 -0.000   -0.000 -0.000  0.000    0.000  0.000 -0.000
 TransDip  -0.000 -0.056  0.000   -0.090  0.000  0.073    0.000 -0.099 -0.000

 STANDARD THERMODYNAMIC QUANTITIES AT   298.15 K  AND     1.00 ATM

   This Molecule has  0 Imaginary Frequencies
   Zero point vibrational energy:       83.539 kcal/mol

   Atom    1 Element C  Has Mass   12.00000
   Atom    2 Element Si Has Mass   27.97693
   Atom    3 Element C  Has Mass   12.00000
   Atom    4 Element C  Has Mass   12.00000
   Atom    5 Element H  Has Mass    1.00783
   Atom    6 Element H  Has Mass    1.00783
   Atom    7 Element H  Has Mass    1.00783
   Atom    8 Element H  Has Mass    1.00783
   Atom    9 Element H  Has Mass    1.00783
   Atom   10 Element H  Has Mass    1.00783
   Atom   11 Element H  Has Mass    1.00783
   Atom   12 Element H  Has Mass    1.00783
   Atom   13 Element H  Has Mass    1.00783
   Atom   14 Element H  Has Mass    1.00783
   Atom   15 Element I  Has Mass  126.90440
   Atom   16 Element C  Has Mass   12.00000
   Atom   17 Element F  Has Mass   18.99840
   Atom   18 Element F  Has Mass   18.99840
   Atom   19 Element F  Has Mass   18.99840
   Molecular Mass:   269.954830 amu
   Principal axes and moments of inertia in amu*Bohr^2:
                             1           2           3
    Eigenvalues --      863.74428  6472.26660  6506.73498
          X               1.00000     0.00000     0.00165
          Y               0.00000    -1.00000     0.00035
          Z              -0.00165     0.00035     1.00000
   Rotational Symmetry Number is   1
   The Molecule is an Asymmetric Top
   Translational Enthalpy:        0.889 kcal/mol
   Rotational Enthalpy:           0.889 kcal/mol
   Vibrational Enthalpy:         90.933 kcal/mol
   gas constant (RT):             0.592 kcal/mol
   Translational Entropy:        42.678  cal/mol.K
   Rotational Entropy:           31.965  cal/mol.K
   Vibrational Entropy:          58.044  cal/mol.K

   Total Enthalpy:               93.303 kcal/mol
   Total Entropy:               132.687  cal/mol.K

   Quasi-RRHO corrections using alpha = 4, and omega = 100 cm^-1
   QRRHO-Vib. Enthalpy:          88.973 kcal/mol
   QRRHO-Vib. Entropy:           47.628  cal/mol.K
   QRRHO-Total Enthalpy:         91.343 kcal/mol
   QRRHO-Total Entropy:         122.271  cal/mol.K
 Total job time:  16138.67s(wall), 209671.02s(cpu) 
 Tue Jun 11 22:08:04 2024

        *************************************************************
        *                                                           *
        *  Thank you very much for using Q-Chem.  Have a nice day.  *
        *                                                           *
        *************************************************************


