
Running Job 1 of 2 Me3SiH_BrCN_vfb_forward.in
qchem Me3SiH_BrCN_vfb_forward.in_2799878.0 /data/scratch/Me3SiH_BrCN_vfb_forward20240611170946/ 1
/opt/qchem/6.1/exe/qcprog.exe_s Me3SiH_BrCN_vfb_forward.in_2799878.0 /data/scratch/Me3SiH_BrCN_vfb_forward20240611170946/
                  Welcome to Q-Chem
     A Quantum Leap Into The Future Of Chemistry


 Q-Chem 6.1, Q-Chem, Inc., Pleasanton, CA (2023)

 E. Epifanovsky,  A. T. B. Gilbert,  Xintian Feng,  Joonho Lee,  Yuezhi Mao,  
 N. Mardirossian,  P. Pokhilko,  A. White,  M. Wormit,  M. P. Coons,  
 A. L. Dempwolff,  Zhengting Gan,  D. Hait,  P. R. Horn,  L. D. Jacobson,  
 I. Kaliman,  J. Kussmann,  A. W. Lange,  Ka Un Lao,  D. S. Levine,  Jie Liu,  
 S. C. McKenzie,  A. F. Morrison,  K. D. Nanda,  F. Plasser,  D. R. Rehn,  
 M. L. Vidal,  Zhi-Qiang You,  Ying Zhu,  B. Alam,  B. Albrecht,  
 A. Aldossary,  E. Alguire,  J. H. Andersen,  V. Athavale,  D. Barton,  
 K. Begam,  A. Behn,  N. Bellonzi,  Y. A. Bernard,  E. J. Berquist,  
 H. Burton,  A. Carreras,  K. Carter-Fenk,  Mathew Chow,  Romit Chakraborty,  
 Chandrima Chakravarty,  Junhan Chen,  A. D. Chien,  K. D. Closser,  
 V. Cofer-Shabica,  L. Cunha,  S. Dasgupta,  Jia Deng,  M. de Wergifosse,  
 M. Diedenhofen,  Hainam Do,  S. Ehlert,  Po-Tung Fang,  S. Fatehi,  
 Qingguo Feng,  T. Friedhoff,  Thomas Froitzheim,  B. Ganoe,  J. Gayvert,  
 Qinghui Ge,  G. Gidofalvi,  M. Gimferrer,  M. Goldey,  Montgomery Gray,  
 J. Gomes,  C. Gonzalez-Espinoza,  S. Gulania,  A. Gunina,  J. A. Gyamfi,  
 M. W. D. Hanson-Heine,  P. H. P. Harbach,  A. W. Hauser,  M. F. Herbst,  
 M. Hernandez Vera,  M. Hodecker,  Z. C. Holden,  S. Houck,  Xunkun Huang,  
 Kerwin Hui,  B. C. Huynh,  K. Ikeda,  M. Ivanov,  Hyunjun Ji,  Zuxin Jin,  
 Hanjie Jiang,  Subrata Jana,  B. Kaduk,  S. Kaehler,  R. Kang,  
 K. Khistyaev,  Jaehoon Kim,  Yongbin Kim,  P. Klunzinger,  Z. Koczor-Benda,  
 Joong Hoon Koh,  D. Kosenkov,  Saikiran Kotaru,  L. Koulias,  T. Kowalczyk,  
 C. M. Krauter,  K. Kue,  A. Kunitsa,  T. Kus,  A. Landau,  K. V. Lawler,  
 D. Lefrancois,  S. Lehtola,  Rain Li,  Shaozhi Li,  Yi-Pei Li,  
 Jiashu Liang,  M. Liebenthal,  Hung-Hsuan Lin,  You-Sheng Lin,  Fenglai Liu,  
 Kuan-Yu Liu,  Xiao Liu,  M. Loipersberger,  A. Luenser,  C. Malbon,  
 A. Manjanath,  P. Manohar,  E. Mansoor,  S. F. Manzer,  Shan-Ping Mao,  
 A. V. Marenich,  T. Markovich,  S. Mason,  F. Matz,  S. A. Maurer,  
 P. F. McLaughlin,  M. F. S. J. Menger,  J.-M. Mewes,  S. A. Mewes,  
 P. Morgante,  Mohammad Mostafanejad,  J. W. Mullinax,  K. J. Oosterbaan,  
 G. Paran,  V. Parravicini,  Alexander C. Paul,  Suranjan K. Paul,  
 F. Pavosevic,  Zheng Pei,  S. Prager,  E. I. Proynov,  E. Ramos,  B. Rana,  
 A. E. Rask,  A. Rettig,  R. M. Richard,  F. Rob,  E. Rossomme,  T. Scheele,  
 M. Scheurer,  M. Schneider,  P. E. Schneider,  Tim K. Schramm,  N. Sergueev,  
 S. M. Sharada,  M. Sharma,  Hengyuan Shen,  W. Skomorowski,  D. W. Small,  
 C. J. Stein,  Alistair J. Sterling,  Yingli Su,  Yu-Chuan Su,  
 E. J. Sundstrom,  J. Talbot,  Zhen Tao,  J. Thirman,  Hung-Yi Tsai,  
 T. Tsuchimochi,  N. M. Tubman,  C. Utku,  S. P. Veccham,  O. Vydrov,  
 J. Wenzel,  Jonathan Wong,  J. Witte,  A. Yamada,  Chou-Hsun Yang,  Kun Yao,  
 S. Yeganeh,  S. R. Yost,  A. Zech,  F. Zeller,  Igor Ying Zhang,  
 Xing Zhang,  Yu Zhang,  D. Zuev,  A. Aspuru-Guzik,  A. T. Bell,  
 N. A. Besley,  K. B. Bravaya,  B. R. Brooks,  D. Casanova,  Jeng-Da Chai,  
 Hsing-Ta Chen,  S. Coriani,  C. J. Cramer,  A. E. DePrince, III,  
 R. A. DiStasio Jr.,  A. Dreuw,  B. D. Dunietz,  T. R. Furlani,  
 W. A. Goddard III,  S. Grimme,  S. Hammes-Schiffer,  T. Head-Gordon,  
 W. J. Hehre,  Chao-Ping Hsu,  T.-C. Jagau,  Yousung Jung,  A. Klamt,  
 Jing Kong,  D. S. Lambrecht,  Xiangyuan Li,  WanZhen Liang,  N. J. Mayhall,  
 C. W. McCurdy,  J. B. Neaton,  T. Neudecker,  C. Ochsenfeld,  
 J. A. Parkhill,  R. Peverati,  V. A. Rassolov,  Haisheng Ren,  Yihan Shao,  
 L. V. Slipchenko,  R. P. Steele,  J. E. Subotnik,  A. J. W. Thom,  
 A. Tkatchenko,  D. G. Truhlar,  T. Van Voorhis,  Fan Wang,  
 T. A. Wesolowski,  K. B. Whaley,  H. L. Woodcock III,  P. M. Zimmerman,  
 S. Faraji,  P. M. W. Gill,  M. Head-Gordon,  J. M. Herbert,  A. I. Krylov

 Contributors to earlier versions of Q-Chem not listed above: 
 R. D. Adamson,  B. Austin,  R. Baer,  J. Baker,  G. J. O. Beran,  
 K. Brandhorst,  S. T. Brown,  E. F. C. Byrd,  Arup K. Chakraborty,  
 G. K. L. Chan,  Chun-Min Chang,  Yunqing Chen,  C.-L. Cheng,  
 Siu Hung Chien,  D. M. Chipman,  D. L. Crittenden,  H. Dachsel,  
 R. J. Doerksen,  A. D. Dutoi,  R. G. Edgar,  J. Fosso-Tande,  
 L. Fusti-Molnar,  D. Ghosh,  A. Ghysels,  A. Golubeva-Zadorozhnaya,  
 J. Gonthier,  M. S. Gordon,  S. R. Gwaltney,  G. Hawkins,  J. E. Herr,  
 A. Heyden,  S. Hirata,  E. G. Hohenstein,  G. Kedziora,  F. J. Keil,  
 C. Kelley,  Jihan Kim,  R. A. King,  R. Z. Khaliullin,  P. P. Korambath,  
 W. Kurlancheek,  A. Laurent,  A. M. Lee,  M. S. Lee,  S. V. Levchenko,  
 Ching Yeh Lin,  D. Liotard,  E. Livshits,  R. C. Lochan,  I. Lotan,  
 L. A. Martinez-Martinez,  P. E. Maslen,  N. Nair,  D. P. O'Neill,  
 D. Neuhauser,  E. Neuscamman,  C. M. Oana,  R. Olivares-Amaya,  R. Olson,  
 T. M. Perrine,  B. Peters,  P. A. Pieniazek,  A. Prociuk,  Y. M. Rhee,  
 J. Ritchie,  M. A. Rohrdanz,  E. Rosta,  N. J. Russ,  H. F. Schaefer III,  
 M. W. Schmidt,  N. E. Schultz,  S. Sharma,  N. Shenvi,  C. D. Sherrill,  
 A. C. Simmonett,  A. Sodt,  T. Stein,  D. Stuck,  K. S. Thanthiriwatte,  
 V. Vanovschi,  L. Vogt,  Tao Wang,  A. Warshel,  M. A. Watson,  
 C. F. Williams,  Q. Wu,  X. Xu,  Jun Yang,  W. Zhang,  Yan Zhao

   Please cite Q-Chem as follows:
  "Software for the frontiers of quantum chemistry:
   An overview of developments in the Q-Chem 5 package"
   J. Chem. Phys. 155, 084801 (2021)
   https://doi.org/10.1063/5.0055522 (open access)

 Q-Chem 6.1.1 for Intel X86 EM64T Linux

 Parts of Q-Chem use Armadillo 9.900.5 (Nocturnal Misbehaviour).
 http://arma.sourceforge.net/

 Q-Chem begins on Tue Jun 11 17:09:48 2024  

 Host: 
0

     Scratch files written to /data/scratch/Me3SiH_BrCN_vfb_forward20240611170946//
 Jan1824 |scratch|qcdevops|jenkins|workspace|build_RNUM -1
 Processing $rem in /opt/qchem/6.1/config/preferences:
 Processing $rem in /home/ymao/.qchemrc:

 Checking the input file for inconsistencies... 	...done.

--------------------------------------------------------------
User input:
--------------------------------------------------------------
$molecule
0 1
--
0 1
H    1.1494978093   0.0010746281   1.1885438814
Si   2.1797527184   0.0003866633   0.0884069113
C    3.8831281360   0.0017470612   0.8888589291
C    1.9261518830  -1.5489682632  -0.9523382356
C    1.9250789847   1.5475702264  -0.9553016271
H    4.0278080909   0.8925612005   1.5206066924
H    4.6748977285   0.0013165088   0.1216648839
H    4.0284499554  -0.8877789475   1.5222717202
H    2.0234915703  -2.4625023270  -0.3440378364
H    0.9290786907  -1.5614183875  -1.4211640326
H    2.6743094963  -1.6030064874  -1.7602892535
H    0.9280538528   1.5583617951  -1.4242718642
H    2.0216387339   2.4623328972  -0.3487258617
H    2.6732945480   1.6006478629  -1.7632623732
--
0 1
Br  -1.5398321693  -0.0002999281   0.3810664448
C   -3.2213463951  -0.0011389440  -0.2470382510
N   -4.3050953166  -0.0017313559  -0.6525843189
$end

$rem
JOBTYPE  OPT
GEN_SCFMAN  TRUE
VFB_CTA  FORWARD
METHOD  WB97X-V
BASIS  DEF2-SVPD
UNRESTRICTED  FALSE
MAX_SCF_CYCLES  2000
THRESH  14
SCF_CONVERGENCE  9
MEM_TOTAL  8000
MEM_STATIC  2000
SCF_GUESS  FRAGMO
SYMMETRY  FALSE
SYM_IGNORE  FALSE
SCF_ALGORITHM  DIIS
BASIS_LIN_DEP_THRESH  6
IDERIV  1
SCFMI_MODE  0
XC_GRID  000075000302
NL_GRID  1
FD_MAT_VEC_PROD  FALSE
GEOM_OPT_TOL_GRADIENT  50
GEOM_OPT_TOL_DISPLACEMENT  50
GEOM_OPT_TOL_ENERGY  10
GEOM_OPT_DRIVER  OPTIMIZE
GEOM_OPT_MAX_CYCLES  200
$end

--------------------------------------------------------------
 ----------------------------------------------------------------
             Standard Nuclear Orientation (Angstroms)
    I     Atom           X                Y                Z
 ----------------------------------------------------------------
    1      H       1.1777693320    -0.0000921188     1.1782298810
    2      Si      2.1951667077     0.0000058669     0.0661914040
    3      C       3.9077315962     0.0002119226     0.8467902491
    4      C       1.9291008816    -1.5483131567    -0.9729821668
    5      C       1.9287625888     1.5482269177    -0.9730408246
    6      H       4.0599662772     0.8903994755     1.4776452873
    7      H       4.6905298870     0.0003120545     0.0704444486
    8      H       4.0601853316    -0.8899415533     1.4776399642
    9      H       2.0332778655    -2.4624397576    -0.3667078150
   10      H       0.9266424699    -1.5600873173    -1.4301977465
   11      H       2.6678030790    -1.6017721347    -1.7896252912
   12      H       0.9263563270     1.5596945631    -1.4303796863
   13      H       2.0325936705     2.4623979985    -0.3667743569
   14      H       2.6675492197     1.6018837457    -1.7895943076
   15      Br     -1.5207651431    -0.0000716249     0.4020668053
   16      C      -3.2094668639     0.0000770568    -0.2064500642
   17      N      -4.2978566534     0.0001219054    -0.5993716254
 ----------------------------------------------------------------
 Molecular Point Group                 C1    NOp =  1
 Largest Abelian Subgroup              C1    NOp =  1
 Nuclear Repulsion Energy =         533.22774695 hartrees
 There are       45 alpha and       45 beta electrons
 Requested basis set is def2-SVPD
 There are 105 shells and 245 basis functions

 Total QAlloc Memory Limit   8000 MB
 Mega-Array Size      1956 MB
 MEM_STATIC part      2000 MB

 A cutoff of  1.0D-14 yielded   5084 shell pairs
 There are     27676 function pairs (     31411 Cartesian)
 Smallest overlap matrix eigenvalue = 1.58E-04

 Scale SEOQF with 1.000000e-01/1.000000e-01/1.000000e-01

 Standard Electronic Orientation quadrupole field applied
 Nucleus-field energy     =     0.0000000193 hartrees
 Attempting to make child job directory: /data/scratch/Me3SiH_BrCN_vfb_forward20240611170946//Frg1/
 Attempting to make child job directory: /data/scratch/Me3SiH_BrCN_vfb_forward20240611170946//Frg2/
 Creating input file /data/scratch/Me3SiH_BrCN_vfb_forward20240611170946/Frg1.input
 using default PutDataFrgm: nothing
 calling putenv with: QCSCRATCH=/data/scratch/Me3SiH_BrCN_vfb_forward20240611170946/ 
 Spawning Job For Fragment 0
 Done Job For Fragment 0
 calling putenv with: QCSCRATCH=/data/scratch 
 calling putenv with: QCTHREADS=16 
 Creating input file /data/scratch/Me3SiH_BrCN_vfb_forward20240611170946/Frg2.input
 using default PutDataFrgm: nothing
 calling putenv with: QCSCRATCH=/data/scratch/Me3SiH_BrCN_vfb_forward20240611170946/ 
 Spawning Job For Fragment 1
 Done Job For Fragment 1
 calling putenv with: QCSCRATCH=/data/scratch 
 calling putenv with: QCTHREADS=16 
 Time for running child jobs:  CPU 2.34 s  wall 26.73 s

 -----------------------------------------------------------------------
  General SCF calculation program by
  Eric Jon Sundstrom, Paul Horn, Yuezhi Mao, Dmitri Zuev, Alec White,
  David Stuck, Shaama M.S., Shane Yost, Joonho Lee, David Small,
  Daniel Levine, Susi Lehtola, Hugh Burton, Evgeny Epifanovsky,
  Bang C. Huynh
 -----------------------------------------------------------------------
Performing Restricted Closed Shell SCFMI
Doing General SCFMI
 Exchange:     0.1670 Hartree-Fock + 1.0000 wB97X-V + LR-HF
 Correlation:  1.0000 wB97X-V
 Using Euler-Maclaurin-Lebedev (75,302) quadrature formula
 Nonlocal Correlation:  VV10 with C = 0.0100 and b = 6.00 and scale = 1.00000
 Grid used for NLC:  SG-1 standard quadrature
performing fock build before subrot guess so that all methods have access
 using 16 threads for integral computing
 -------------------------------------------------------
 OpenMP Integral computing Module                
 Release: version 1.0, May 2013, Q-Chem Inc. Pittsburgh 
 -------------------------------------------------------
Printing subrot_rss_gen Method Specification:
Occupied Subspace Method is 0
Virtual Subspace Method is 0
Energy prior to optimization (guess energy) = -3075.936868005197
Begin Timing: Total SCF Calculation
begin iterations for algorithm: DIIS         
the SCF tolerance is set to 1.00e-09
    1   -3075.9368680052      1.99e-04     00000 
    2   -3075.9378817268      7.60e-05     00000 
    3   -3075.9379901873      4.00e-05     00000 
    4   -3075.9380132042      1.98e-05     00000 
    5   -3075.9380161223      1.52e-05     00000 
    6   -3075.9380190459      5.26e-06     00000 
    7   -3075.9380194047      1.25e-06     00000 
    8   -3075.9380194333      3.81e-07     00000 
    9   -3075.9380194369      1.63e-07     00000 
   10   -3075.9380194375      6.70e-08     00000 
   11   -3075.9380194376      2.38e-08     00000 
   12   -3075.9380194376      8.46e-09     00000 
   13   -3075.9380194376      2.94e-09     00000 
   14   -3075.9380194376      1.08e-09     00000 
   15   -3075.9380194376      4.71e-10     00000 Convergence criterion met
write pseudocanon occs and virts to disk
write pseudocanon orbital energies to disk
Timing for Total SCF: 48.00s (wall), 730.18s (cpu)
SCFMI Energy   -3075.9380194376
<S^2>            0.00000
====================================================================
           Variational forward-backward (VFB) CT analysis           
 M. Loipersberger, Y. Mao and M. Head-Gordon, JCTC, 16, 1073 (2020) 
====================================================================
Calculating stabilization due to the forward (1->2) CT
Requested donor fragment: 1
updated OccSS dimension
        21
        24
updated VirtSS dimension
          200
           57
Energy prior to optimization (guess energy) = -3075.938019437650
Begin Timing: Total SCF Calculation
begin iterations for algorithm: DIIS         
the SCF tolerance is set to 1.00e-09
    1   -3075.9380194376      2.67e-04     00000 
    2   -3075.9393834862      2.73e-05     00000 
    3   -3075.9394590682      8.74e-06     00000 
    4   -3075.9394638871      8.21e-06     00000 
    5   -3075.9394656586      2.07e-06     00000 
    6   -3075.9394657792      6.13e-07     00000 
    7   -3075.9394657947      2.27e-07     00000 
    8   -3075.9394657962      9.40e-08     00000 
    9   -3075.9394657965      3.33e-08     00000 
   10   -3075.9394657966      9.09e-09     00000 
   11   -3075.9394657966      2.08e-09     00000 
   12   -3075.9394657966      8.61e-10     00000 Convergence criterion met
write pseudocanon occs and virts to disk
write pseudocanon orbital energies to disk
Timing for Total SCF: 37.00s (wall), 589.67s (cpu)
Energy of the one-side CT state:    -3075.9394657966
Stabilization due to one-side CT:    -3.7975 kJ/mol
<S^2>            0.00000
 Total energy in the final basis set =    -3075.9394657966
    ==================================================
        The end of Object-Oriented SCFman: SCFMI      
    ==================================================
 
 --------------------------------------------------------------
 
                    Orbital Energies (a.u.)
 --------------------------------------------------------------
 
 Alpha MOs
 -- Occupied --
 -482.66380   -66.13568   -62.57064   -56.39399   -56.38917   -56.38916
  -14.44815   -10.37339   -10.27626   -10.27598   -10.27596    -8.86762
   -6.70414    -6.68705    -6.68702    -5.39044    -3.74481    -3.74376
   -3.74373    -2.82530    -2.82032    -2.82029    -2.80706    -2.80705
   -1.06115    -0.98894    -0.85158    -0.81102    -0.81080    -0.65640
   -0.60490    -0.54020    -0.52980    -0.52741    -0.52294    -0.52065
   -0.50723    -0.50716    -0.49645    -0.49634    -0.42361    -0.42328
   -0.42290    -0.41687    -0.41622
 -- Virtual --
    0.04584     0.06766     0.07833     0.08106     0.08694     0.10170
    0.10183     0.11554     0.12202     0.12641     0.14620     0.14976
    0.15357     0.16363     0.16651     0.17595     0.18413     0.18589
    0.19140     0.19841     0.20034     0.20464     0.21809     0.22424
    0.22924     0.24308     0.25204     0.26356     0.27203     0.28431
    0.28795     0.29955     0.30177     0.30620     0.31616     0.32110
    0.33855     0.34146     0.34881     0.35656     0.36838     0.38228
    0.38386     0.39090     0.39854     0.39883     0.40397     0.41112
    0.41114     0.42181     0.42214     0.43492     0.43857     0.44193
    0.44428     0.45451     0.47091     0.47242     0.47322     0.47654
    0.48086     0.49038     0.49609     0.49856     0.51178     0.52383
    0.52539     0.53532     0.54179     0.54606     0.54708     0.55950
    0.57063     0.57962     0.58712     0.59520     0.59562     0.60352
    0.60544     0.61388     0.61661     0.62417     0.63280     0.64500
    0.64693     0.65785     0.66781     0.66896     0.70111     0.71887
    0.72626     0.76815     0.77468     0.80038     0.81100     0.81591
    0.82614     0.83223     0.85197     0.89785     0.90504     0.91253
    0.91472     0.93016     0.95955     0.96029     0.98540     0.99364
    1.01963     1.02177     1.03653     1.04356     1.05795     1.06170
    1.07747     1.08226     1.09209     1.09313     1.11202     1.11382
    1.12354     1.16704     1.16928     1.18402     1.19050     1.24514
    1.25710     1.27338     1.27833     1.28098     1.30157     1.31315
    1.32881     1.35414     1.38781     1.39341     1.42036     1.43501
    1.48433     1.64667     1.68341     1.69665     1.71756     1.74827
    1.77040     1.78711     1.80746     1.81093     1.82433     1.84361
    1.84494     1.88456     1.88679     1.91613     1.94643     2.01631
    2.01947     2.02011     2.02299     2.05409     2.05664     2.07953
    2.09736     2.12701     2.13769     2.15927     2.19560     2.20962
    2.23080     2.24177     2.33217     2.44915     2.47706     2.47875
    2.53717     2.53867     2.60650     2.61002     2.61122     2.62333
    2.62734     2.63973     2.85005     2.89834     2.90289     2.91001
    2.96926     2.97049     3.17810     3.18320     3.18581     3.21510
    3.22443     3.24379     3.57585     3.63932     3.64427     3.72444
    3.75979     4.01323
 --------------------------------------------------------------
 
          Ground-State Mulliken Net Atomic Charges

     Atom                 Charge (a.u.)
  ----------------------------------------
      1 H                     0.260676
      2 Si                   -0.505404
      3 C                     0.234248
      4 C                     0.171221
      5 C                     0.171233
      6 H                    -0.018113
      7 H                    -0.001341
      8 H                    -0.018112
      9 H                    -0.023052
     10 H                    -0.082441
     11 H                    -0.021769
     12 H                    -0.082462
     13 H                    -0.023047
     14 H                    -0.021789
     15 Br                   -0.134260
     16 C                     0.181215
     17 N                    -0.086803
  ----------------------------------------
  Sum of atomic charges =     0.000000

 -----------------------------------------------------------------
                    Cartesian Multipole Moments
 -----------------------------------------------------------------
    Charge (ESU x 10^10)
                -0.0000
    Dipole Moment (Debye)
         X       4.1052      Y      -0.0001      Z       0.5644
       Tot       4.1438
    Quadrupole Moments (Debye-Ang)
        XX     -80.4400     XY       0.0007     YY     -64.4350
        XZ      -4.5131     YZ       0.0001     ZZ     -65.2437
    Octopole Moments (Debye-Ang^2)
       XXX      56.0561    XXY      -0.0046    XYY     -15.5791
       YYY      -0.0018    XXZ      18.9831    XYZ      -0.0014
       YYZ       7.6839    XZZ     -12.8084    YZZ      -0.0008
       ZZZ      12.2795
    Hexadecapole Moments (Debye-Ang^3)
      XXXX   -3234.8257   XXXY       0.0180   XXYY    -506.3172
      XYYY       0.0044   YYYY    -341.1072   XXXZ    -134.8116
      XXYZ      -0.0016   XYYZ       0.9919   YYYZ      -0.0006
      XXZZ    -505.7114   XYZZ       0.0024   YYZZ    -103.5928
      XZZZ     -28.2720   YZZZ      -0.0008   ZZZZ    -272.8449
 -----------------------------------------------------------------
 Calculating analytic gradient of the SCF energy
 Gradient of SCF Energy
            1           2           3           4           5           6
    1  -0.0002867  -0.0003106  -0.0000150   0.0000583   0.0000591   0.0000020
    2   0.0000000   0.0000004  -0.0000003  -0.0000191   0.0000191  -0.0000009
    3  -0.0001077   0.0001006  -0.0000643  -0.0000347  -0.0000347  -0.0000017
            7           8           9          10          11          12
    1   0.0000117   0.0000020  -0.0000165  -0.0000918   0.0000194  -0.0000924
    2   0.0000002   0.0000010   0.0000107   0.0000694  -0.0000103  -0.0000696
    3  -0.0000016  -0.0000018   0.0000122   0.0000423   0.0000035   0.0000421
           13          14          15          16          17
    1  -0.0000169   0.0000195   0.0006723   0.0000306  -0.0000450
    2  -0.0000107   0.0000100  -0.0000015   0.0000031  -0.0000016
    3   0.0000122   0.0000037   0.0000963  -0.0000625  -0.0000039
 Max gradient component =       6.723E-04
 RMS gradient           =       1.184E-04
 Gradient time:  CPU 140.11 s  wall 8.81 s
 Geometry Optimization Parameters
   NAtoms,    NIC,     NZ,  NCons,   NDum,   NFix, NCnnct, MaxDiis
       17     109       0       0       0       0       0       0


** GEOMETRY OPTIMIZATION IN DELOCALIZED INTERNAL COORDINATES **
   Searching for a Minimum

   Optimization Cycle:   1

                       Coordinates (Angstroms)
     ATOM                X               Y               Z
      1  H         1.1777693320   -0.0000921188    1.1782298810
      2  Si        2.1951667077    0.0000058669    0.0661914040
      3  C         3.9077315962    0.0002119226    0.8467902491
      4  C         1.9291008816   -1.5483131567   -0.9729821668
      5  C         1.9287625888    1.5482269177   -0.9730408246
      6  H         4.0599662772    0.8903994755    1.4776452873
      7  H         4.6905298870    0.0003120545    0.0704444486
      8  H         4.0601853316   -0.8899415533    1.4776399642
      9  H         2.0332778655   -2.4624397576   -0.3667078150
     10  H         0.9266424699   -1.5600873173   -1.4301977465
     11  H         2.6678030790   -1.6017721347   -1.7896252912
     12  H         0.9263563270    1.5596945631   -1.4303796863
     13  H         2.0325936705    2.4623979985   -0.3667743569
     14  H         2.6675492197    1.6018837457   -1.7895943076
     15  Br       -1.5207651431   -0.0000716249    0.4020668053
     16  C        -3.2094668639    0.0000770568   -0.2064500642
     17  N        -4.2978566534    0.0001219054   -0.5993716254
   Point Group: c1    Number of degrees of freedom:    45


   Energy is  -3075.939465797


 Attempting to generate delocalized internal coordinates
 Initial Hessian constructed with Jon Baker's OPTIMIZE code

 45 Hessian modes will be used to form the next step
  Hessian Eigenvalues:
     0.002000    0.003241    0.003241    0.003443    0.017288    0.035668
     0.044568    0.044657    0.054115    0.054116    0.054534    0.055027
     0.055027    0.055215    0.144856    0.145495    0.160000    0.160000
     0.160000    0.160000    0.160000    0.160000    0.160000    0.160000
     0.160000    0.160000    0.165487    0.200000    0.200000    0.200000
     0.200000    0.205002    0.205003    0.205876    0.265149    0.334082
     0.334102    0.334102    0.334766    0.334767    0.334796    0.334796
     0.335026    0.335026    1.296818

 Minimum search - taking simple RFO step
 Searching for Lamda that Minimizes Along All modes
 Value Taken    Lamda =  -0.00003357
 Step Taken.  Stepsize is  0.037936

                             Maximum     Tolerance    Cnvgd?
         Gradient           0.001100      0.000050      NO
         Displacement       0.019608      0.000050      NO
         Energy change     *********      0.000000      NO


 New Cartesian Coordinates Obtained by Inverse Iteration

 Displacement from previous Coordinates is:  0.109263
 ----------------------------------------------------------------
             Standard Nuclear Orientation (Angstroms)
    I     Atom           X                Y                Z
 ----------------------------------------------------------------
    1      H       1.1774660395     0.0000981272     1.1731986544
    2      Si      2.1981703052     0.0000892486     0.0628186548
    3      C       3.9075719542     0.0001606047     0.8504938541
    4      C       1.9372242608    -1.5485811544    -0.9773698794
    5      C       1.9371574338     1.5486720815    -0.9774844161
    6      H       4.0573185802     0.8903632275     1.4819236279
    7      H       4.6934773962     0.0001633688     0.0773095901
    8      H       4.0573713229    -0.8899983840     1.4819724222
    9      H       2.0402769821    -2.4626571150    -0.3708171916
   10      H       0.9369327277    -1.5619936384    -1.4390191331
   11      H       2.6792224199    -1.6011486426    -1.7910538103
   12      H       0.9369105589     1.5619539748    -1.4392330116
   13      H       2.0400571776     2.4627963614    -0.3709786571
   14      H       2.6792298704     1.6012652561    -1.7910989318
   15      Br     -1.5432270632    -0.0001540981     0.4038290059
   16      C      -3.2353087323    -0.0003013810    -0.1949900348
   17      N      -4.3245046605    -0.0001139937    -0.5856165889
 ----------------------------------------------------------------
 Molecular Point Group                 C1    NOp =  1
 Largest Abelian Subgroup              C1    NOp =  1
 Nuclear Repulsion Energy =         531.77509170 hartrees
 There are       45 alpha and       45 beta electrons
 Applying Cartesian multipole field
    Component          Value
    ---------          -----
     (2,0,0)        1.00000E-11
     (0,2,0)        2.00000E-11
     (0,0,2)       -3.00000E-11
 Nucleus-field energy     =     0.0000000195 hartrees
 Requested basis set is def2-SVPD
 There are 105 shells and 245 basis functions
 A cutoff of  1.0D-14 yielded   5078 shell pairs
 There are     27640 function pairs (     31370 Cartesian)
 Smallest overlap matrix eigenvalue = 1.58E-04
 Attempting to make child job directory: /data/scratch/Me3SiH_BrCN_vfb_forward20240611170946//Frg1/
 Failed to make child job directory:     /data/scratch/Me3SiH_BrCN_vfb_forward20240611170946//Frg1/
 Attempting to make child job directory: /data/scratch/Me3SiH_BrCN_vfb_forward20240611170946//Frg2/
 Failed to make child job directory:     /data/scratch/Me3SiH_BrCN_vfb_forward20240611170946//Frg2/
 Creating input file /data/scratch/Me3SiH_BrCN_vfb_forward20240611170946/Frg1.input
 using default PutDataFrgm: nothing
 calling putenv with: QCSCRATCH=/data/scratch/Me3SiH_BrCN_vfb_forward20240611170946/ 
 Spawning Job For Fragment 0
 Done Job For Fragment 0
 calling putenv with: QCSCRATCH=/data/scratch 
 calling putenv with: QCTHREADS=16 
 Creating input file /data/scratch/Me3SiH_BrCN_vfb_forward20240611170946/Frg2.input
 using default PutDataFrgm: nothing
 calling putenv with: QCSCRATCH=/data/scratch/Me3SiH_BrCN_vfb_forward20240611170946/ 
 Spawning Job For Fragment 1
 Done Job For Fragment 1
 calling putenv with: QCSCRATCH=/data/scratch 
 calling putenv with: QCTHREADS=16 
 Time for running child jobs:  CPU 2.15 s  wall 25.54 s

 -----------------------------------------------------------------------
  General SCF calculation program by
  Eric Jon Sundstrom, Paul Horn, Yuezhi Mao, Dmitri Zuev, Alec White,
  David Stuck, Shaama M.S., Shane Yost, Joonho Lee, David Small,
  Daniel Levine, Susi Lehtola, Hugh Burton, Evgeny Epifanovsky,
  Bang C. Huynh
 -----------------------------------------------------------------------
Performing Restricted Closed Shell SCFMI
Doing General SCFMI
 Exchange:     0.1670 Hartree-Fock + 1.0000 wB97X-V + LR-HF
 Correlation:  1.0000 wB97X-V
 Using Euler-Maclaurin-Lebedev (75,302) quadrature formula
 Nonlocal Correlation:  VV10 with C = 0.0100 and b = 6.00 and scale = 1.00000
 Grid used for NLC:  SG-1 standard quadrature
performing fock build before subrot guess so that all methods have access
Printing subrot_rss_gen Method Specification:
Occupied Subspace Method is 0
Virtual Subspace Method is 0
Energy prior to optimization (guess energy) = -3075.937020020829
Begin Timing: Total SCF Calculation
begin iterations for algorithm: DIIS         
the SCF tolerance is set to 1.00e-09
    1   -3075.9370200208      1.93e-04     00000 
    2   -3075.9379912988      7.35e-05     00000 
    3   -3075.9380955480      3.84e-05     00000 
    4   -3075.9381173743      1.89e-05     00000 
    5   -3075.9381201927      1.44e-05     00000 
    6   -3075.9381228676      4.91e-06     00000 
    7   -3075.9381231875      1.16e-06     00000 
    8   -3075.9381232124      3.42e-07     00000 
    9   -3075.9381232153      1.43e-07     00000 
   10   -3075.9381232158      5.72e-08     00000 
   11   -3075.9381232159      2.04e-08     00000 
   12   -3075.9381232159      7.18e-09     00000 
   13   -3075.9381232159      2.48e-09     00000 
   14   -3075.9381232159      8.84e-10     00000 Convergence criterion met
write pseudocanon occs and virts to disk
write pseudocanon orbital energies to disk
Timing for Total SCF: 44.00s (wall), 693.82s (cpu)
SCFMI Energy   -3075.9381232159
<S^2>            0.00000
====================================================================
           Variational forward-backward (VFB) CT analysis           
 M. Loipersberger, Y. Mao and M. Head-Gordon, JCTC, 16, 1073 (2020) 
====================================================================
Calculating stabilization due to the forward (1->2) CT
Requested donor fragment: 1
updated OccSS dimension
        21
        24
updated VirtSS dimension
          200
           57
Energy prior to optimization (guess energy) = -3075.938123215908
Begin Timing: Total SCF Calculation
begin iterations for algorithm: DIIS         
the SCF tolerance is set to 1.00e-09
    1   -3075.9381232159      2.61e-04     00000 
    2   -3075.9394140427      2.63e-05     00000 
    3   -3075.9394844734      8.33e-06     00000 
    4   -3075.9394889560      7.82e-06     00000 
    5   -3075.9394905576      1.96e-06     00000 
    6   -3075.9394906661      5.84e-07     00000 
    7   -3075.9394906803      2.11e-07     00000 
    8   -3075.9394906816      8.54e-08     00000 
    9   -3075.9394906820      3.01e-08     00000 
   10   -3075.9394906820      8.36e-09     00000 
   11   -3075.9394906820      1.91e-09     00000 
   12   -3075.9394906820      7.95e-10     00000 Convergence criterion met
write pseudocanon occs and virts to disk
write pseudocanon orbital energies to disk
Timing for Total SCF: 36.00s (wall), 587.03s (cpu)
Energy of the one-side CT state:    -3075.9394906820
Stabilization due to one-side CT:    -3.5903 kJ/mol
<S^2>            0.00000
 Total energy in the final basis set =    -3075.9394906820
    ==================================================
        The end of Object-Oriented SCFman: SCFMI      
    ==================================================
 
 --------------------------------------------------------------
 
                    Orbital Energies (a.u.)
 --------------------------------------------------------------
 
 Alpha MOs
 -- Occupied --
 -482.66392   -66.13562   -62.57077   -56.39412   -56.38930   -56.38929
  -14.44827   -10.37356   -10.27609   -10.27595   -10.27593    -8.86775
   -6.70427    -6.68719    -6.68715    -5.39036    -3.74473    -3.74369
   -3.74366    -2.82543    -2.82045    -2.82042    -2.80720    -2.80718
   -1.06128    -0.98905    -0.85147    -0.81089    -0.81077    -0.65623
   -0.60484    -0.54008    -0.52957    -0.52732    -0.52303    -0.52089
   -0.50712    -0.50709    -0.49644    -0.49639    -0.42355    -0.42338
   -0.42286    -0.41675    -0.41621
 -- Virtual --
    0.04549     0.06785     0.07821     0.08095     0.08689     0.10180
    0.10183     0.11545     0.12197     0.12637     0.14625     0.14985
    0.15355     0.16367     0.16650     0.17557     0.18394     0.18587
    0.19135     0.19822     0.20029     0.20473     0.21812     0.22405
    0.22882     0.24232     0.25121     0.26298     0.27160     0.28425
    0.28780     0.29928     0.30180     0.30591     0.31586     0.32091
    0.33823     0.34148     0.34881     0.35636     0.36847     0.38216
    0.38381     0.39103     0.39848     0.39886     0.40391     0.41066
    0.41087     0.42196     0.42203     0.43486     0.43854     0.44134
    0.44454     0.45470     0.47101     0.47240     0.47318     0.47572
    0.48019     0.49022     0.49553     0.49822     0.51239     0.52351
    0.52524     0.53432     0.54155     0.54615     0.54717     0.55854
    0.57150     0.57900     0.58735     0.59505     0.59588     0.60334
    0.60488     0.61395     0.61697     0.62477     0.63296     0.64512
    0.64683     0.65722     0.66711     0.66974     0.70041     0.71895
    0.72557     0.76740     0.77415     0.79819     0.81039     0.81448
    0.82545     0.82996     0.85154     0.89757     0.90543     0.91025
    0.91340     0.92927     0.95965     0.95972     0.98573     0.99368
    1.02060     1.02146     1.03733     1.04344     1.05725     1.06054
    1.07645     1.08211     1.09200     1.09282     1.10877     1.11189
    1.12579     1.16671     1.16855     1.18303     1.19030     1.24512
    1.25618     1.27220     1.27826     1.28023     1.29909     1.31410
    1.32837     1.35293     1.38628     1.39285     1.42067     1.43392
    1.48429     1.64581     1.68315     1.69680     1.71700     1.74835
    1.77028     1.78716     1.80752     1.81069     1.82403     1.84338
    1.84473     1.88427     1.88671     1.91617     1.94622     2.01649
    2.01944     2.02002     2.02290     2.05434     2.05667     2.07870
    2.09707     2.12672     2.13782     2.15861     2.19556     2.20949
    2.23024     2.24158     2.33161     2.44905     2.47731     2.47863
    2.53695     2.53835     2.60661     2.61009     2.61105     2.62345
    2.62733     2.63958     2.84983     2.89819     2.90297     2.90989
    2.96913     2.97039     3.17816     3.18309     3.18576     3.21531
    3.22458     3.24366     3.57551     3.63821     3.64327     3.72399
    3.75868     4.01191
 --------------------------------------------------------------
 
          Ground-State Mulliken Net Atomic Charges

     Atom                 Charge (a.u.)
  ----------------------------------------
      1 H                     0.263562
      2 Si                   -0.506517
      3 C                     0.235045
      4 C                     0.168605
      5 C                     0.168587
      6 H                    -0.018444
      7 H                    -0.001459
      8 H                    -0.018450
      9 H                    -0.023364
     10 H                    -0.081327
     11 H                    -0.021916
     12 H                    -0.081304
     13 H                    -0.023362
     14 H                    -0.021922
     15 Br                   -0.132374
     16 C                     0.181860
     17 N                    -0.087220
  ----------------------------------------
  Sum of atomic charges =     0.000000

 -----------------------------------------------------------------
                    Cartesian Multipole Moments
 -----------------------------------------------------------------
    Charge (ESU x 10^10)
                -0.0000
    Dipole Moment (Debye)
         X       4.0992      Y      -0.0001      Z       0.5498
       Tot       4.1359
    Quadrupole Moments (Debye-Ang)
        XX     -80.6201     XY       0.0003     YY     -64.4369
        XZ      -4.4858     YZ      -0.0001     ZZ     -65.2253
    Octopole Moments (Debye-Ang^2)
       XXX      59.0433    XXY       0.0024    XYY     -15.0713
       YYY       0.0067    XXZ      18.7157    XYZ       0.0000
       YYZ       7.5910    XZZ     -12.4241    YZZ       0.0019
       ZZZ      11.9798
    Hexadecapole Moments (Debye-Ang^3)
      XXXX   -3270.4513   XXXY      -0.0668   XXYY    -510.4949
      XYYY      -0.0594   YYYY    -341.2388   XXXZ    -132.2919
      XXYZ      -0.0020   XYYZ       1.8868   YYYZ       0.0048
      XXZZ    -509.5774   XYZZ      -0.0208   YYZZ    -103.7235
      XZZZ     -25.4990   YZZZ       0.0040   ZZZZ    -273.3709
 -----------------------------------------------------------------
 Calculating analytic gradient of the SCF energy
 Gradient of SCF Energy
            1           2           3           4           5           6
    1  -0.0003291  -0.0000593  -0.0000409   0.0000257   0.0000258   0.0000083
    2  -0.0000003   0.0000000  -0.0000000  -0.0000440   0.0000441  -0.0000001
    3   0.0002693  -0.0002609   0.0000078  -0.0000536  -0.0000540  -0.0000003
            7           8           9          10          11          12
    1  -0.0000203   0.0000083  -0.0000099   0.0000233  -0.0000160   0.0000239
    2   0.0000001   0.0000001  -0.0000068   0.0000334  -0.0000168  -0.0000333
    3  -0.0000086  -0.0000004  -0.0000012   0.0000238   0.0000083   0.0000236
           13          14          15          16          17
    1  -0.0000101  -0.0000159   0.0004752  -0.0001188   0.0000297
    2   0.0000069   0.0000168   0.0000056  -0.0000144   0.0000086
    3  -0.0000012   0.0000084   0.0000095   0.0001485  -0.0001191
 Max gradient component =       4.752E-04
 RMS gradient           =       1.038E-04
 Gradient time:  CPU 140.27 s  wall 9.11 s
 Geometry Optimization Parameters
   NAtoms,    NIC,     NZ,  NCons,   NDum,   NFix, NCnnct, MaxDiis
       17     109       0       0       0       0       0       0

 Cartesian Hessian Update
 Hessian updated using BFGS update


** GEOMETRY OPTIMIZATION IN DELOCALIZED INTERNAL COORDINATES **
   Searching for a Minimum

   Optimization Cycle:   2

                       Coordinates (Angstroms)
     ATOM                X               Y               Z
      1  H         1.1774660395    0.0000981272    1.1731986544
      2  Si        2.1981703052    0.0000892486    0.0628186548
      3  C         3.9075719542    0.0001606047    0.8504938541
      4  C         1.9372242608   -1.5485811544   -0.9773698794
      5  C         1.9371574338    1.5486720815   -0.9774844161
      6  H         4.0573185802    0.8903632275    1.4819236279
      7  H         4.6934773962    0.0001633688    0.0773095901
      8  H         4.0573713229   -0.8899983840    1.4819724222
      9  H         2.0402769821   -2.4626571150   -0.3708171916
     10  H         0.9369327277   -1.5619936384   -1.4390191331
     11  H         2.6792224199   -1.6011486426   -1.7910538103
     12  H         0.9369105589    1.5619539748   -1.4392330116
     13  H         2.0400571776    2.4627963614   -0.3709786571
     14  H         2.6792298704    1.6012652561   -1.7910989318
     15  Br       -1.5432270632   -0.0001540981    0.4038290059
     16  C        -3.2353087323   -0.0003013810   -0.1949900348
     17  N        -4.3245046605   -0.0001139937   -0.5856165889
   Point Group: c1    Number of degrees of freedom:    45


   Energy is  -3075.939490682

 Hessian updated using BFGS update

 33 Hessian modes will be used to form the next step
  Hessian Eigenvalues:
     0.002000    0.003213    0.003241    0.003443    0.006867    0.035685
     0.044568    0.046139    0.054065    0.054115    0.054548    0.055025
     0.055027    0.055215    0.136187    0.144856    0.145543    0.160087
     0.168157    0.199686    0.204915    0.205859    0.264714    0.289639
     0.334084    0.334150    0.334766    0.334795    0.334796    0.335025
     0.335026    0.337757    1.296819

 Minimum search - taking simple RFO step
 Searching for Lamda that Minimizes Along All modes
 Value Taken    Lamda =  -0.00004196
 Step Taken.  Stepsize is  0.074006

                             Maximum     Tolerance    Cnvgd?
         Gradient           0.000855      0.000050      NO
         Displacement       0.039355      0.000050      NO
         Energy change     -0.000025      0.000000      NO


 New Cartesian Coordinates Obtained by Inverse Iteration

 Displacement from previous Coordinates is:  0.190302
 ----------------------------------------------------------------
             Standard Nuclear Orientation (Angstroms)
    I     Atom           X                Y                Z
 ----------------------------------------------------------------
    1      H       1.1782974130     0.0000232621     1.1629976373
    2      Si      2.2048232768     0.0000459137     0.0584340841
    3      C       3.9097424284     0.0001446899     0.8563856982
    4      C       1.9509246921    -1.5487146767    -0.9832233970
    5      C       1.9507714739     1.5487450737    -0.9832753730
    6      H       4.0554864761     0.8903465219     1.4887418514
    7      H       4.7005389204     0.0001525765     0.0881693127
    8      H       4.0555622307    -0.8900032945     1.4888004819
    9      H       2.0542513479    -2.4627039478    -0.3766031831
   10      H       0.9528778236    -1.5654051847    -1.4496450675
   11      H       2.6966271539    -1.5988868924    -1.7937135837
   12      H       0.9527249425     1.5653186973    -1.4497026173
   13      H       2.0540040987     2.4627653541    -0.3766862093
   14      H       2.6964743486     1.5989650185    -1.7937626483
   15      Br     -1.5837568385     0.0000201688     0.4015343754
   16      C      -3.2765586976     0.0009451119    -0.1941513583
   17      N      -4.3774445170    -0.0011445490    -0.5504158485
 ----------------------------------------------------------------
 Molecular Point Group                 C1    NOp =  1
 Largest Abelian Subgroup              C1    NOp =  1
 Nuclear Repulsion Energy =         529.29122735 hartrees
 There are       45 alpha and       45 beta electrons
 Applying Cartesian multipole field
    Component          Value
    ---------          -----
     (2,0,0)        1.00000E-11
     (0,2,0)        2.00000E-11
     (0,0,2)       -3.00000E-11
 Nucleus-field energy     =     0.0000000198 hartrees
 Requested basis set is def2-SVPD
 There are 105 shells and 245 basis functions
 A cutoff of  1.0D-14 yielded   5072 shell pairs
 There are     27606 function pairs (     31330 Cartesian)
 Smallest overlap matrix eigenvalue = 1.58E-04
 Attempting to make child job directory: /data/scratch/Me3SiH_BrCN_vfb_forward20240611170946//Frg1/
 Failed to make child job directory:     /data/scratch/Me3SiH_BrCN_vfb_forward20240611170946//Frg1/
 Attempting to make child job directory: /data/scratch/Me3SiH_BrCN_vfb_forward20240611170946//Frg2/
 Failed to make child job directory:     /data/scratch/Me3SiH_BrCN_vfb_forward20240611170946//Frg2/
 Creating input file /data/scratch/Me3SiH_BrCN_vfb_forward20240611170946/Frg1.input
 using default PutDataFrgm: nothing
 calling putenv with: QCSCRATCH=/data/scratch/Me3SiH_BrCN_vfb_forward20240611170946/ 
 Spawning Job For Fragment 0
 Done Job For Fragment 0
 calling putenv with: QCSCRATCH=/data/scratch 
 calling putenv with: QCTHREADS=16 
 Creating input file /data/scratch/Me3SiH_BrCN_vfb_forward20240611170946/Frg2.input
 using default PutDataFrgm: nothing
 calling putenv with: QCSCRATCH=/data/scratch/Me3SiH_BrCN_vfb_forward20240611170946/ 
 Spawning Job For Fragment 1
 Done Job For Fragment 1
 calling putenv with: QCSCRATCH=/data/scratch 
 calling putenv with: QCTHREADS=16 
 Time for running child jobs:  CPU 2.25 s  wall 27.72 s

 -----------------------------------------------------------------------
  General SCF calculation program by
  Eric Jon Sundstrom, Paul Horn, Yuezhi Mao, Dmitri Zuev, Alec White,
  David Stuck, Shaama M.S., Shane Yost, Joonho Lee, David Small,
  Daniel Levine, Susi Lehtola, Hugh Burton, Evgeny Epifanovsky,
  Bang C. Huynh
 -----------------------------------------------------------------------
Performing Restricted Closed Shell SCFMI
Doing General SCFMI
 Exchange:     0.1670 Hartree-Fock + 1.0000 wB97X-V + LR-HF
 Correlation:  1.0000 wB97X-V
 Using Euler-Maclaurin-Lebedev (75,302) quadrature formula
 Nonlocal Correlation:  VV10 with C = 0.0100 and b = 6.00 and scale = 1.00000
 Grid used for NLC:  SG-1 standard quadrature
performing fock build before subrot guess so that all methods have access
Printing subrot_rss_gen Method Specification:
Occupied Subspace Method is 0
Virtual Subspace Method is 0
Energy prior to optimization (guess energy) = -3075.937237338398
Begin Timing: Total SCF Calculation
begin iterations for algorithm: DIIS         
the SCF tolerance is set to 1.00e-09
    1   -3075.9372373384      1.84e-04     00000 
    2   -3075.9381324956      6.97e-05     00000 
    3   -3075.9382290032      3.59e-05     00000 
    4   -3075.9382487373      1.72e-05     00000 
    5   -3075.9382512123      1.29e-05     00000 
    6   -3075.9382533809      4.47e-06     00000 
    7   -3075.9382536534      1.02e-06     00000 
    8   -3075.9382536730      2.82e-07     00000 
    9   -3075.9382536750      1.14e-07     00000 
   10   -3075.9382536753      4.32e-08     00000 
   11   -3075.9382536754      1.54e-08     00000 
   12   -3075.9382536754      5.29e-09     00000 
   13   -3075.9382536754      1.79e-09     00000 
   14   -3075.9382536754      6.13e-10     00000 Convergence criterion met
write pseudocanon occs and virts to disk
write pseudocanon orbital energies to disk
Timing for Total SCF: 46.00s (wall), 691.14s (cpu)
SCFMI Energy   -3075.9382536754
<S^2>            0.00000
====================================================================
           Variational forward-backward (VFB) CT analysis           
 M. Loipersberger, Y. Mao and M. Head-Gordon, JCTC, 16, 1073 (2020) 
====================================================================
Calculating stabilization due to the forward (1->2) CT
Requested donor fragment: 1
updated OccSS dimension
        21
        24
updated VirtSS dimension
          200
           57
Energy prior to optimization (guess energy) = -3075.938253675404
Begin Timing: Total SCF Calculation
begin iterations for algorithm: DIIS         
the SCF tolerance is set to 1.00e-09
    1   -3075.9382536754      2.51e-04     00000 
    2   -3075.9394121975      2.44e-05     00000 
    3   -3075.9394731775      7.57e-06     00000 
    4   -3075.9394770371      7.06e-06     00000 
    5   -3075.9394783413      1.76e-06     00000 
    6   -3075.9394784294      5.31e-07     00000 
    7   -3075.9394784413      1.81e-07     00000 
    8   -3075.9394784423      7.08e-08     00000 
    9   -3075.9394784426      2.47e-08     00000 
   10   -3075.9394784426      7.12e-09     00000 
   11   -3075.9394784426      1.62e-09     00000 
   12   -3075.9394784426      6.82e-10     00000 Convergence criterion met
write pseudocanon occs and virts to disk
write pseudocanon orbital energies to disk
Timing for Total SCF: 39.00s (wall), 586.72s (cpu)
Energy of the one-side CT state:    -3075.9394784426
Stabilization due to one-side CT:    -3.2157 kJ/mol
<S^2>            0.00000
 Total energy in the final basis set =    -3075.9394784426
    ==================================================
        The end of Object-Oriented SCFman: SCFMI      
    ==================================================
 
 --------------------------------------------------------------
 
                    Orbital Energies (a.u.)
 --------------------------------------------------------------
 
 Alpha MOs
 -- Occupied --
 -482.66417   -66.13526   -62.57104   -56.39438   -56.38957   -56.38955
  -14.44852   -10.37389   -10.27586   -10.27579   -10.27577    -8.86802
   -6.70452    -6.68746    -6.68743    -5.39003    -3.74438    -3.74336
   -3.74332    -2.82568    -2.82071    -2.82068    -2.80748    -2.80746
   -1.06157    -0.98931    -0.85124    -0.81065    -0.81062    -0.65602
   -0.60478    -0.53989    -0.52921    -0.52714    -0.52325    -0.52127
   -0.50691    -0.50688    -0.49666    -0.49622    -0.42375    -0.42356
   -0.42254    -0.41654    -0.41608
 -- Virtual --
    0.04456     0.06815     0.07858     0.08082     0.08701     0.10156
    0.10165     0.11488     0.12207     0.12629     0.14640     0.15001
    0.15329     0.16370     0.16655     0.17521     0.18360     0.18587
    0.19139     0.19796     0.20023     0.20492     0.21814     0.22370
    0.22779     0.24097     0.25004     0.26296     0.27068     0.28414
    0.28770     0.29884     0.30214     0.30603     0.31498     0.32047
    0.33798     0.34142     0.34766     0.35595     0.36866     0.38144
    0.38397     0.38996     0.39729     0.40101     0.40384     0.40985
    0.41008     0.42210     0.42218     0.43497     0.43832     0.44037
    0.44502     0.45587     0.47116     0.47243     0.47314     0.47467
    0.47917     0.48973     0.49501     0.49781     0.51156     0.52273
    0.52527     0.53295     0.54107     0.54635     0.54728     0.55651
    0.57274     0.57856     0.58839     0.59436     0.59595     0.60301
    0.60323     0.61403     0.61743     0.62821     0.63320     0.64357
    0.64655     0.65673     0.66557     0.66901     0.69959     0.71926
    0.72435     0.76645     0.77463     0.79436     0.80952     0.81093
    0.82449     0.82675     0.85006     0.89673     0.90569     0.90730
    0.91095     0.92726     0.95892     0.96005     0.98627     0.99400
    1.02156     1.02235     1.03897     1.04237     1.05617     1.06103
    1.07455     1.08205     1.09133     1.09191     1.10397     1.10864
    1.12921     1.16629     1.16632     1.18205     1.18993     1.24511
    1.25408     1.27020     1.27808     1.27860     1.29545     1.31314
    1.32787     1.35069     1.38523     1.39253     1.42127     1.43271
    1.48410     1.64688     1.68291     1.69702     1.71662     1.74849
    1.77041     1.78741     1.80770     1.81039     1.82358     1.84293
    1.84437     1.88358     1.88601     1.91624     1.94555     2.01686
    2.01950     2.01978     2.02284     2.05456     2.05650     2.07803
    2.09658     2.12634     2.13811     2.15797     2.19591     2.20920
    2.22987     2.24152     2.33176     2.44933     2.47753     2.47850
    2.53675     2.53787     2.60669     2.61025     2.61083     2.62363
    2.62726     2.63946     2.84783     2.89807     2.90302     2.90981
    2.96890     2.97082     3.17820     3.18301     3.18552     3.21562
    3.22467     3.24340     3.57523     3.63690     3.64188     3.72304
    3.75658     4.00961
 --------------------------------------------------------------
 
          Ground-State Mulliken Net Atomic Charges

     Atom                 Charge (a.u.)
  ----------------------------------------
      1 H                     0.269995
      2 Si                   -0.512528
      3 C                     0.237107
      4 C                     0.164328
      5 C                     0.164352
      6 H                    -0.019201
      7 H                    -0.001347
      8 H                    -0.019207
      9 H                    -0.023856
     10 H                    -0.079148
     11 H                    -0.021627
     12 H                    -0.079171
     13 H                    -0.023865
     14 H                    -0.021624
     15 Br                   -0.128775
     16 C                     0.182331
     17 N                    -0.087763
  ----------------------------------------
  Sum of atomic charges =     0.000000

 -----------------------------------------------------------------
                    Cartesian Multipole Moments
 -----------------------------------------------------------------
    Charge (ESU x 10^10)
                 0.0000
    Dipole Moment (Debye)
         X       4.0949      Y       0.0020      Z       0.5031
       Tot       4.1257
    Quadrupole Moments (Debye-Ang)
        XX     -81.0286     XY      -0.0107     YY     -64.4501
        XZ      -4.2946     YZ      -0.0018     ZZ     -65.1546
    Octopole Moments (Debye-Ang^2)
       XXX      65.0822    XXY       0.0452    XYY     -14.1918
       YYY      -0.0028    XXZ      17.8679    XYZ       0.0057
       YYZ       7.5508    XZZ     -11.8671    YZZ      -0.0011
       ZZZ      11.7732
    Hexadecapole Moments (Debye-Ang^3)
      XXXX   -3340.0543   XXXY      -0.2507   XXYY    -518.3073
      XYYY      -0.0465   YYYY    -341.4097   XXXZ    -126.6231
      XXYZ      -0.0296   XYYZ       3.2010   YYYZ      -0.0086
      XXZZ    -516.1615   XYZZ      -0.0192   YYZZ    -103.7740
      XZZZ     -21.4628   YZZZ      -0.0102   ZZZZ    -273.2029
 -----------------------------------------------------------------
 Calculating analytic gradient of the SCF energy
 Gradient of SCF Energy
            1           2           3           4           5           6
    1  -0.0000872   0.0001431  -0.0000174  -0.0000476  -0.0000478   0.0000083
    2   0.0000018  -0.0000009   0.0000003   0.0000029  -0.0000029  -0.0000032
    3   0.0002757  -0.0004074   0.0001081   0.0000449   0.0000461  -0.0000045
            7           8           9          10          11          12
    1  -0.0000173   0.0000082  -0.0000012   0.0000742  -0.0000210   0.0000736
    2  -0.0000000   0.0000031  -0.0000033  -0.0000422   0.0000148   0.0000424
    3  -0.0000219  -0.0000044  -0.0000112  -0.0000458   0.0000089  -0.0000466
           13          14          15          16          17
    1  -0.0000010  -0.0000211  -0.0002025   0.0003926  -0.0002360
    2   0.0000034  -0.0000149  -0.0000576   0.0001384  -0.0000821
    3  -0.0000115   0.0000089   0.0006588  -0.0014906   0.0008926
 Max gradient component =       1.491E-03
 RMS gradient           =       2.816E-04
 Gradient time:  CPU 136.54 s  wall 9.17 s
 Geometry Optimization Parameters
   NAtoms,    NIC,     NZ,  NCons,   NDum,   NFix, NCnnct, MaxDiis
       17     109       0       0       0       0       0       0

 Cartesian Hessian Update
 Hessian updated using BFGS update


** GEOMETRY OPTIMIZATION IN DELOCALIZED INTERNAL COORDINATES **
   Searching for a Minimum

   Optimization Cycle:   3

                       Coordinates (Angstroms)
     ATOM                X               Y               Z
      1  H         1.1782974130    0.0000232621    1.1629976373
      2  Si        2.2048232768    0.0000459137    0.0584340841
      3  C         3.9097424284    0.0001446899    0.8563856982
      4  C         1.9509246921   -1.5487146767   -0.9832233970
      5  C         1.9507714739    1.5487450737   -0.9832753730
      6  H         4.0554864761    0.8903465219    1.4887418514
      7  H         4.7005389204    0.0001525765    0.0881693127
      8  H         4.0555622307   -0.8900032945    1.4888004819
      9  H         2.0542513479   -2.4627039478   -0.3766031831
     10  H         0.9528778236   -1.5654051847   -1.4496450675
     11  H         2.6966271539   -1.5988868924   -1.7937135837
     12  H         0.9527249425    1.5653186973   -1.4497026173
     13  H         2.0540040987    2.4627653541   -0.3766862093
     14  H         2.6964743486    1.5989650185   -1.7937626483
     15  Br       -1.5837568385    0.0000201688    0.4015343754
     16  C        -3.2765586976    0.0009451119   -0.1941513583
     17  N        -4.3774445170   -0.0011445490   -0.5504158485
   Point Group: c1    Number of degrees of freedom:    45


   Energy is  -3075.939478443

 Hessian updated using BFGS update

 37 Hessian modes will be used to form the next step
  Hessian Eigenvalues:
     0.002000    0.003072    0.003241    0.003443    0.005421    0.035694
     0.044568    0.047289    0.054115    0.054191    0.054564    0.055016
     0.055027    0.055215    0.137920    0.144856    0.145733    0.160008
     0.160186    0.178525    0.199622    0.200029    0.205002    0.205746
     0.206124    0.265176    0.334083    0.334102    0.334135    0.334766
     0.334795    0.334796    0.335025    0.335026    0.335673    0.891151
     1.296901

 Minimum search - taking simple RFO step
 Searching for Lamda that Minimizes Along All modes
 Value Taken    Lamda =  -0.00006414
 Step Taken.  Stepsize is  0.018889

                             Maximum     Tolerance    Cnvgd?
         Gradient           0.006858      0.000050      NO
         Displacement       0.007702      0.000050      NO
         Energy change      0.000012      0.000000      NO


 New Cartesian Coordinates Obtained by Inverse Iteration

 Displacement from previous Coordinates is:  0.045193
 ----------------------------------------------------------------
             Standard Nuclear Orientation (Angstroms)
    I     Atom           X                Y                Z
 ----------------------------------------------------------------
    1      H       1.1803004054    -0.0001088007     1.1622166984
    2      Si      2.2066082949    -0.0000036377     0.0594094081
    3      C       3.9125835686     0.0002389426     0.8553013580
    4      C       1.9511361133    -1.5484472107    -0.9820112542
    5      C       1.9507109291     1.5483365876    -0.9820549303
    6      H       4.0588028441     0.8904366922     1.4875496089
    7      H       4.7027829123     0.0003134674     0.0864366493
    8      H       4.0590295059    -0.8898798384     1.4876086450
    9      H       2.0568297677    -2.4624450298    -0.3758264243
   10      H       0.9516177083    -1.5657565390    -1.4455449160
   11      H       2.6947811307    -1.5977699367    -1.7945080685
   12      H       0.9511722970     1.5653710677    -1.4455575376
   13      H       2.0561865722     2.4623808627    -0.3759026550
   14      H       2.6943217852     1.5978230720    -1.7945735468
   15      Br     -1.5886939555    -0.0001344906     0.4005427490
   16      C      -3.2853230610    -0.0004767215    -0.1835194337
   17      N      -4.3775002448     0.0007353561    -0.5656821956
 ----------------------------------------------------------------
 Molecular Point Group                 C1    NOp =  1
 Largest Abelian Subgroup              C1    NOp =  1
 Nuclear Repulsion Energy =         529.03447053 hartrees
 There are       45 alpha and       45 beta electrons
 Applying Cartesian multipole field
    Component          Value
    ---------          -----
     (2,0,0)        1.00000E-11
     (0,2,0)        2.00000E-11
     (0,0,2)       -3.00000E-11
 Nucleus-field energy     =     0.0000000199 hartrees
 Requested basis set is def2-SVPD
 There are 105 shells and 245 basis functions
 A cutoff of  1.0D-14 yielded   5072 shell pairs
 There are     27606 function pairs (     31330 Cartesian)
 Smallest overlap matrix eigenvalue = 1.59E-04
 Attempting to make child job directory: /data/scratch/Me3SiH_BrCN_vfb_forward20240611170946//Frg1/
 Failed to make child job directory:     /data/scratch/Me3SiH_BrCN_vfb_forward20240611170946//Frg1/
 Attempting to make child job directory: /data/scratch/Me3SiH_BrCN_vfb_forward20240611170946//Frg2/
 Failed to make child job directory:     /data/scratch/Me3SiH_BrCN_vfb_forward20240611170946//Frg2/
 Creating input file /data/scratch/Me3SiH_BrCN_vfb_forward20240611170946/Frg1.input
 using default PutDataFrgm: nothing
 calling putenv with: QCSCRATCH=/data/scratch/Me3SiH_BrCN_vfb_forward20240611170946/ 
 Spawning Job For Fragment 0
 Done Job For Fragment 0
 calling putenv with: QCSCRATCH=/data/scratch 
 calling putenv with: QCTHREADS=16 
 Creating input file /data/scratch/Me3SiH_BrCN_vfb_forward20240611170946/Frg2.input
 using default PutDataFrgm: nothing
 calling putenv with: QCSCRATCH=/data/scratch/Me3SiH_BrCN_vfb_forward20240611170946/ 
 Spawning Job For Fragment 1
 Done Job For Fragment 1
 calling putenv with: QCSCRATCH=/data/scratch 
 calling putenv with: QCTHREADS=16 
 Time for running child jobs:  CPU 2.19 s  wall 26.88 s

 -----------------------------------------------------------------------
  General SCF calculation program by
  Eric Jon Sundstrom, Paul Horn, Yuezhi Mao, Dmitri Zuev, Alec White,
  David Stuck, Shaama M.S., Shane Yost, Joonho Lee, David Small,
  Daniel Levine, Susi Lehtola, Hugh Burton, Evgeny Epifanovsky,
  Bang C. Huynh
 -----------------------------------------------------------------------
Performing Restricted Closed Shell SCFMI
Doing General SCFMI
 Exchange:     0.1670 Hartree-Fock + 1.0000 wB97X-V + LR-HF
 Correlation:  1.0000 wB97X-V
 Using Euler-Maclaurin-Lebedev (75,302) quadrature formula
 Nonlocal Correlation:  VV10 with C = 0.0100 and b = 6.00 and scale = 1.00000
 Grid used for NLC:  SG-1 standard quadrature
performing fock build before subrot guess so that all methods have access
Printing subrot_rss_gen Method Specification:
Occupied Subspace Method is 0
Virtual Subspace Method is 0
Energy prior to optimization (guess energy) = -3075.937295061082
Begin Timing: Total SCF Calculation
begin iterations for algorithm: DIIS         
the SCF tolerance is set to 1.00e-09
    1   -3075.9372950611      1.83e-04     00000 
    2   -3075.9381805944      6.86e-05     00000 
    3   -3075.9382760668      3.53e-05     00000 
    4   -3075.9382956579      1.70e-05     00000 
    5   -3075.9382982008      1.29e-05     00000 
    6   -3075.9383003843      4.31e-06     00000 
    7   -3075.9383006415      1.00e-06     00000 
    8   -3075.9383006605      2.78e-07     00000 
    9   -3075.9383006624      1.11e-07     00000 
   10   -3075.9383006627      4.17e-08     00000 
   11   -3075.9383006628      1.49e-08     00000 
   12   -3075.9383006628      5.17e-09     00000 
   13   -3075.9383006628      1.75e-09     00000 
   14   -3075.9383006628      5.93e-10     00000 Convergence criterion met
write pseudocanon occs and virts to disk
write pseudocanon orbital energies to disk
Timing for Total SCF: 43.00s (wall), 679.79s (cpu)
SCFMI Energy   -3075.9383006628
<S^2>            0.00000
====================================================================
           Variational forward-backward (VFB) CT analysis           
 M. Loipersberger, Y. Mao and M. Head-Gordon, JCTC, 16, 1073 (2020) 
====================================================================
Calculating stabilization due to the forward (1->2) CT
Requested donor fragment: 1
updated OccSS dimension
        21
        24
updated VirtSS dimension
          200
           57
Energy prior to optimization (guess energy) = -3075.938300662773
Begin Timing: Total SCF Calculation
begin iterations for algorithm: DIIS         
the SCF tolerance is set to 1.00e-09
    1   -3075.9383006628      2.51e-04     00000 
    2   -3075.9394392582      2.41e-05     00000 
    3   -3075.9394986720      7.44e-06     00000 
    4   -3075.9395024300      6.93e-06     00000 
    5   -3075.9395036843      1.72e-06     00000 
    6   -3075.9395037693      5.23e-07     00000 
    7   -3075.9395037809      1.76e-07     00000 
    8   -3075.9395037818      6.83e-08     00000 
    9   -3075.9395037820      2.39e-08     00000 
   10   -3075.9395037821      6.95e-09     00000 
   11   -3075.9395037821      1.59e-09     00000 
   12   -3075.9395037821      6.70e-10     00000 Convergence criterion met
write pseudocanon occs and virts to disk
write pseudocanon orbital energies to disk
Timing for Total SCF: 36.00s (wall), 579.15s (cpu)
Energy of the one-side CT state:    -3075.9395037821
Stabilization due to one-side CT:    -3.1588 kJ/mol
<S^2>            0.00000
 Total energy in the final basis set =    -3075.9395037821
    ==================================================
        The end of Object-Oriented SCFman: SCFMI      
    ==================================================
 
 --------------------------------------------------------------
 
                    Orbital Energies (a.u.)
 --------------------------------------------------------------
 
 Alpha MOs
 -- Occupied --
 -482.66423   -66.13508   -62.57110   -56.39444   -56.38963   -56.38962
  -14.44855   -10.37395   -10.27590   -10.27573   -10.27571    -8.86808
   -6.70458    -6.68753    -6.68750    -5.38989    -3.74424    -3.74322
   -3.74318    -2.82575    -2.82077    -2.82074    -2.80755    -2.80753
   -1.06161    -0.98940    -0.85123    -0.81065    -0.81055    -0.65604
   -0.60485    -0.53987    -0.52915    -0.52714    -0.52330    -0.52136
   -0.50694    -0.50684    -0.49667    -0.49619    -0.42366    -0.42359
   -0.42274    -0.41653    -0.41602
 -- Virtual --
    0.04476     0.06821     0.07818     0.08079     0.08681     0.10170
    0.10195     0.11515     0.12199     0.12626     0.14633     0.15000
    0.15329     0.16376     0.16665     0.17535     0.18342     0.18582
    0.19121     0.19823     0.20035     0.20496     0.21833     0.22386
    0.22785     0.24095     0.24968     0.26213     0.27058     0.28422
    0.28778     0.29863     0.30177     0.30562     0.31522     0.32052
    0.33779     0.34139     0.34881     0.35576     0.36871     0.38179
    0.38391     0.39074     0.39761     0.39960     0.40372     0.41010
    0.41026     0.42205     0.42227     0.43492     0.43817     0.44037
    0.44504     0.45547     0.47121     0.47225     0.47331     0.47420
    0.47930     0.48978     0.49440     0.49800     0.51311     0.52251
    0.52529     0.53255     0.54102     0.54658     0.54730     0.55673
    0.57312     0.57795     0.58759     0.59472     0.59648     0.60323
    0.60365     0.61405     0.61795     0.62675     0.63305     0.64456
    0.64643     0.65678     0.66603     0.67083     0.69928     0.71940
    0.72436     0.76624     0.77299     0.79395     0.80957     0.81148
    0.82440     0.82588     0.84949     0.89613     0.90587     0.90664
    0.91070     0.92722     0.95893     0.96005     0.98580     0.99395
    1.02157     1.02236     1.03734     1.04296     1.05627     1.05912
    1.07467     1.08216     1.09193     1.09201     1.10370     1.10849
    1.12984     1.16652     1.16689     1.18191     1.19026     1.24511
    1.25324     1.27006     1.27807     1.27852     1.29487     1.31507
    1.32771     1.35094     1.38468     1.39285     1.42107     1.43222
    1.48414     1.64454     1.68271     1.69698     1.71652     1.74844
    1.77013     1.78747     1.80779     1.81021     1.82361     1.84287
    1.84432     1.88367     1.88635     1.91621     1.94537     2.01687
    2.01931     2.01975     2.02284     2.05432     2.05642     2.07791
    2.09659     2.12634     2.13813     2.15815     2.19617     2.20911
    2.23020     2.24166     2.33243     2.44972     2.47737     2.47850
    2.53652     2.53777     2.60661     2.61027     2.61085     2.62360
    2.62721     2.63950     2.84956     2.89813     2.90296     2.90975
    2.96887     2.97004     3.17807     3.18304     3.18537     3.21554
    3.22452     3.24331     3.57479     3.63611     3.64153     3.72313
    3.75643     4.00906
 --------------------------------------------------------------
 
          Ground-State Mulliken Net Atomic Charges

     Atom                 Charge (a.u.)
  ----------------------------------------
      1 H                     0.272348
      2 Si                   -0.516313
      3 C                     0.236913
      4 C                     0.163392
      5 C                     0.163410
      6 H                    -0.019236
      7 H                    -0.001144
      8 H                    -0.019223
      9 H                    -0.023739
     10 H                    -0.078468
     11 H                    -0.021455
     12 H                    -0.078495
     13 H                    -0.023731
     14 H                    -0.021457
     15 Br                   -0.128198
     16 C                     0.183490
     17 N                    -0.088094
  ----------------------------------------
  Sum of atomic charges =     0.000000

 -----------------------------------------------------------------
                    Cartesian Multipole Moments
 -----------------------------------------------------------------
    Charge (ESU x 10^10)
                 0.0000
    Dipole Moment (Debye)
         X       4.0858      Y      -0.0013      Z       0.5325
       Tot       4.1204
    Quadrupole Moments (Debye-Ang)
        XX     -80.9504     XY       0.0067     YY     -64.4547
        XZ      -4.4191     YZ       0.0011     ZZ     -65.2030
    Octopole Moments (Debye-Ang^2)
       XXX      65.0969    XXY      -0.0295    XYY     -14.1061
       YYY       0.0007    XXZ      18.5006    XYZ      -0.0046
       YYZ       7.5871    XZZ     -11.6156    YZZ      -0.0002
       ZZZ      11.8665
    Hexadecapole Moments (Debye-Ang^3)
      XXXX   -3343.5558   XXXY       0.1428   XXYY    -519.1334
      XYYY       0.0198   YYYY    -341.3528   XXXZ    -129.7970
      XXYZ       0.0136   XYYZ       2.9874   YYYZ       0.0035
      XXZZ    -517.6645   XYZZ       0.0089   YYZZ    -103.7792
      XZZZ     -22.3318   YZZZ       0.0036   ZZZZ    -273.3037
 -----------------------------------------------------------------
 Calculating analytic gradient of the SCF energy
 Gradient of SCF Energy
            1           2           3           4           5           6
    1   0.0001776  -0.0000381   0.0000385  -0.0000651  -0.0000656  -0.0000019
    2   0.0000003   0.0000004   0.0000001   0.0000565  -0.0000569  -0.0000047
    3  -0.0001339  -0.0000555   0.0000694   0.0001199   0.0001211  -0.0000095
            7           8           9          10          11          12
    1   0.0000255  -0.0000018   0.0000022  -0.0000089   0.0000258  -0.0000100
    2  -0.0000001   0.0000046   0.0000156  -0.0000456   0.0000402   0.0000452
    3  -0.0000149  -0.0000094  -0.0000029  -0.0000562   0.0000034  -0.0000556
           13          14          15          16          17
    1   0.0000023   0.0000266  -0.0001030  -0.0000593   0.0000552
    2  -0.0000158  -0.0000406   0.0000302  -0.0000733   0.0000439
    3  -0.0000030   0.0000036  -0.0001156   0.0002915  -0.0001524
 Max gradient component =       2.915E-04
 RMS gradient           =       7.250E-05
 Gradient time:  CPU 135.39 s  wall 8.51 s
 Geometry Optimization Parameters
   NAtoms,    NIC,     NZ,  NCons,   NDum,   NFix, NCnnct, MaxDiis
       17     109       0       0       0       0       0       0

 Cartesian Hessian Update
 Hessian updated using BFGS update


** GEOMETRY OPTIMIZATION IN DELOCALIZED INTERNAL COORDINATES **
   Searching for a Minimum

   Optimization Cycle:   4

                       Coordinates (Angstroms)
     ATOM                X               Y               Z
      1  H         1.1803004054   -0.0001088007    1.1622166984
      2  Si        2.2066082949   -0.0000036377    0.0594094081
      3  C         3.9125835686    0.0002389426    0.8553013580
      4  C         1.9511361133   -1.5484472107   -0.9820112542
      5  C         1.9507109291    1.5483365876   -0.9820549303
      6  H         4.0588028441    0.8904366922    1.4875496089
      7  H         4.7027829123    0.0003134674    0.0864366493
      8  H         4.0590295059   -0.8898798384    1.4876086450
      9  H         2.0568297677   -2.4624450298   -0.3758264243
     10  H         0.9516177083   -1.5657565390   -1.4455449160
     11  H         2.6947811307   -1.5977699367   -1.7945080685
     12  H         0.9511722970    1.5653710677   -1.4455575376
     13  H         2.0561865722    2.4623808627   -0.3759026550
     14  H         2.6943217852    1.5978230720   -1.7945735468
     15  Br       -1.5886939555   -0.0001344906    0.4005427490
     16  C        -3.2853230610   -0.0004767215   -0.1835194337
     17  N        -4.3775002448    0.0007353561   -0.5656821956
   Point Group: c1    Number of degrees of freedom:    45


   Energy is  -3075.939503782

 Hessian updated using BFGS update

 38 Hessian modes will be used to form the next step
  Hessian Eigenvalues:
     0.002000    0.003093    0.003241    0.003443    0.005647    0.035703
     0.044568    0.046869    0.054086    0.054115    0.054554    0.055027
     0.055030    0.138238    0.144856    0.145670    0.159825    0.160000
     0.160176    0.178663    0.199622    0.200000    0.200130    0.205002
     0.205753    0.206797    0.265241    0.334083    0.334102    0.334143
     0.334766    0.334794    0.334796    0.335025    0.335026    0.335876
     1.032833    1.296904

 Minimum search - taking simple RFO step
 Searching for Lamda that Minimizes Along All modes
 Value Taken    Lamda =  -0.00000626
 Step Taken.  Stepsize is  0.024353

                             Maximum     Tolerance    Cnvgd?
         Gradient           0.001308      0.000050      NO
         Displacement       0.013518      0.000050      NO
         Energy change     -0.000025      0.000000      NO


 New Cartesian Coordinates Obtained by Inverse Iteration

 Displacement from previous Coordinates is:  0.061134
 ----------------------------------------------------------------
             Standard Nuclear Orientation (Angstroms)
    I     Atom           X                Y                Z
 ----------------------------------------------------------------
    1      H       1.1794730341     0.0001072190     1.1662082629
    2      Si      2.2044318060     0.0000856065     0.0611570038
    3      C       3.9117667019     0.0001008833     0.8535698607
    4      C       1.9467199738    -1.5484157756    -0.9800701759
    5      C       1.9467266641     1.5485399461    -0.9801463439
    6      H       4.0594939901     0.8902858402     1.4855088431
    7      H       4.7002162644     0.0000764663     0.0829779961
    8      H       4.0594871393    -0.8900500612     1.4855582308
    9      H       2.0528468746    -2.4625737043    -0.3741598553
   10      H       0.9460780241    -1.5645814936    -1.4410400169
   11      H       2.6883557021    -1.5984547661    -1.7943104045
   12      H       0.9460950170     1.5646781966    -1.4411384235
   13      H       2.0528341967     2.4627261649    -0.3742751112
   14      H       2.6883767327     1.5985500743    -1.7943750691
   15      Br     -1.5753887921     0.0000371012     0.4005039323
   16      C      -3.2699676456     0.0012774868    -0.1900342947
   17      N      -4.3621991097    -0.0017753412    -0.5720502798
 ----------------------------------------------------------------
 Molecular Point Group                 C1    NOp =  1
 Largest Abelian Subgroup              C1    NOp =  1
 Nuclear Repulsion Energy =         529.83719334 hartrees
 There are       45 alpha and       45 beta electrons
 Applying Cartesian multipole field
    Component          Value
    ---------          -----
     (2,0,0)        1.00000E-11
     (0,2,0)        2.00000E-11
     (0,0,2)       -3.00000E-11
 Nucleus-field energy     =     0.0000000198 hartrees
 Requested basis set is def2-SVPD
 There are 105 shells and 245 basis functions
 A cutoff of  1.0D-14 yielded   5074 shell pairs
 There are     27608 function pairs (     31332 Cartesian)
 Smallest overlap matrix eigenvalue = 1.59E-04
 Attempting to make child job directory: /data/scratch/Me3SiH_BrCN_vfb_forward20240611170946//Frg1/
 Failed to make child job directory:     /data/scratch/Me3SiH_BrCN_vfb_forward20240611170946//Frg1/
 Attempting to make child job directory: /data/scratch/Me3SiH_BrCN_vfb_forward20240611170946//Frg2/
 Failed to make child job directory:     /data/scratch/Me3SiH_BrCN_vfb_forward20240611170946//Frg2/
 Creating input file /data/scratch/Me3SiH_BrCN_vfb_forward20240611170946/Frg1.input
 using default PutDataFrgm: nothing
 calling putenv with: QCSCRATCH=/data/scratch/Me3SiH_BrCN_vfb_forward20240611170946/ 
 Spawning Job For Fragment 0
 Done Job For Fragment 0
 calling putenv with: QCSCRATCH=/data/scratch 
 calling putenv with: QCTHREADS=16 
 Creating input file /data/scratch/Me3SiH_BrCN_vfb_forward20240611170946/Frg2.input
 using default PutDataFrgm: nothing
 calling putenv with: QCSCRATCH=/data/scratch/Me3SiH_BrCN_vfb_forward20240611170946/ 
 Spawning Job For Fragment 1
 Done Job For Fragment 1
 calling putenv with: QCSCRATCH=/data/scratch 
 calling putenv with: QCTHREADS=16 
 Time for running child jobs:  CPU 2.38 s  wall 25.43 s

 -----------------------------------------------------------------------
  General SCF calculation program by
  Eric Jon Sundstrom, Paul Horn, Yuezhi Mao, Dmitri Zuev, Alec White,
  David Stuck, Shaama M.S., Shane Yost, Joonho Lee, David Small,
  Daniel Levine, Susi Lehtola, Hugh Burton, Evgeny Epifanovsky,
  Bang C. Huynh
 -----------------------------------------------------------------------
Performing Restricted Closed Shell SCFMI
Doing General SCFMI
 Exchange:     0.1670 Hartree-Fock + 1.0000 wB97X-V + LR-HF
 Correlation:  1.0000 wB97X-V
 Using Euler-Maclaurin-Lebedev (75,302) quadrature formula
 Nonlocal Correlation:  VV10 with C = 0.0100 and b = 6.00 and scale = 1.00000
 Grid used for NLC:  SG-1 standard quadrature
performing fock build before subrot guess so that all methods have access
Printing subrot_rss_gen Method Specification:
Occupied Subspace Method is 0
Virtual Subspace Method is 0
Energy prior to optimization (guess energy) = -3075.937226284822
Begin Timing: Total SCF Calculation
begin iterations for algorithm: DIIS         
the SCF tolerance is set to 1.00e-09
    1   -3075.9372262848      1.86e-04     00000 
    2   -3075.9381355214      7.01e-05     00000 
    3   -3075.9382334715      3.62e-05     00000 
    4   -3075.9382536987      1.75e-05     00000 
    5   -3075.9382563010      1.33e-05     00000 
    6   -3075.9382586065      4.49e-06     00000 
    7   -3075.9382588826      1.05e-06     00000 
    8   -3075.9382589032      2.96e-07     00000 
    9   -3075.9382589054      1.20e-07     00000 
   10   -3075.9382589057      4.60e-08     00000 
   11   -3075.9382589058      1.64e-08     00000 
   12   -3075.9382589058      5.72e-09     00000 
   13   -3075.9382589058      1.95e-09     00000 
   14   -3075.9382589058      6.69e-10     00000 Convergence criterion met
write pseudocanon occs and virts to disk
write pseudocanon orbital energies to disk
Timing for Total SCF: 42.00s (wall), 679.55s (cpu)
SCFMI Energy   -3075.9382589058
<S^2>            0.00000
====================================================================
           Variational forward-backward (VFB) CT analysis           
 M. Loipersberger, Y. Mao and M. Head-Gordon, JCTC, 16, 1073 (2020) 
====================================================================
Calculating stabilization due to the forward (1->2) CT
Requested donor fragment: 1
updated OccSS dimension
        21
        24
updated VirtSS dimension
          200
           57
Energy prior to optimization (guess energy) = -3075.938258905777
Begin Timing: Total SCF Calculation
begin iterations for algorithm: DIIS         
the SCF tolerance is set to 1.00e-09
    1   -3075.9382589058      2.54e-04     00000 
    2   -3075.9394383603      2.47e-05     00000 
    3   -3075.9395006753      7.68e-06     00000 
    4   -3075.9395046255      7.17e-06     00000 
    5   -3075.9395059698      1.79e-06     00000 
    6   -3075.9395060609      5.39e-07     00000 
    7   -3075.9395060731      1.85e-07     00000 
    8   -3075.9395060742      7.28e-08     00000 
    9   -3075.9395060744      2.56e-08     00000 
   10   -3075.9395060745      7.33e-09     00000 
   11   -3075.9395060745      1.67e-09     00000 
   12   -3075.9395060745      7.03e-10     00000 Convergence criterion met
write pseudocanon occs and virts to disk
write pseudocanon orbital energies to disk
Timing for Total SCF: 36.00s (wall), 576.09s (cpu)
Energy of the one-side CT state:    -3075.9395060745
Stabilization due to one-side CT:    -3.2745 kJ/mol
<S^2>            0.00000
 Total energy in the final basis set =    -3075.9395060745
    ==================================================
        The end of Object-Oriented SCFman: SCFMI      
    ==================================================
 
 --------------------------------------------------------------
 
                    Orbital Energies (a.u.)
 --------------------------------------------------------------
 
 Alpha MOs
 -- Occupied --
[...]
 IR Intens:        7.362                  6.589                 16.443
 Raman Active:       YES                    YES                    YES
               X      Y      Z        X      Y      Z        X      Y      Z
 H         -0.000  0.306 -0.000   -0.228  0.000  0.215    0.000 -0.336  0.000
 Si        -0.000  0.154 -0.000   -0.113  0.000  0.105    0.000 -0.061 -0.000
 C          0.000  0.077 -0.000    0.222 -0.000 -0.114   -0.000  0.113 -0.000
 C         -0.052 -0.158  0.145   -0.025  0.133 -0.025   -0.076  0.038 -0.019
 C          0.052 -0.158 -0.144   -0.025 -0.133 -0.025    0.076  0.038  0.019
 H          0.269 -0.078 -0.149    0.336 -0.013 -0.115    0.369 -0.110 -0.211
 H          0.000 -0.108  0.000    0.223 -0.000 -0.103   -0.000 -0.176  0.000
 H         -0.269 -0.078  0.149    0.336  0.012 -0.115   -0.369 -0.110  0.211
 H          0.022 -0.107  0.067    0.107  0.316 -0.280    0.132  0.095 -0.070
 H         -0.020 -0.387  0.213   -0.000 -0.122  0.003    0.024 -0.234  0.168
 H         -0.006 -0.246  0.106    0.079  0.065 -0.130    0.133  0.221 -0.196
 H          0.020 -0.387 -0.213   -0.000  0.122  0.003   -0.024 -0.234 -0.168
 H         -0.022 -0.107 -0.067    0.107 -0.317 -0.280   -0.132  0.095  0.070
 H          0.006 -0.246 -0.106    0.079 -0.065 -0.130   -0.133  0.221  0.195
 Br        -0.000  0.000 -0.000   -0.000 -0.000  0.000   -0.000  0.000 -0.000
 C          0.000 -0.000  0.000    0.003  0.000 -0.000   -0.000 -0.001  0.000
 N          0.000 -0.000 -0.000    0.003 -0.000 -0.001   -0.000  0.000  0.000
 TransDip  -0.000  0.087 -0.000   -0.051  0.000  0.064   -0.000 -0.130 -0.000

 Mode:                22                     23                     24
 Frequency:       843.02                 860.06                 914.31
 Force Cnst:      0.6184                 0.6877                 0.6543
 Red. Mass:       1.4768                 1.5779                 1.3285
 IR Active:          YES                    YES                    YES
 IR Intens:       24.460                 88.601                142.949
 Raman Active:       YES                    YES                    YES
               X      Y      Z        X      Y      Z        X      Y      Z
 H          0.198  0.000 -0.198   -0.046 -0.000 -0.055   -0.000  0.806 -0.000
 Si         0.046  0.000 -0.056   -0.073 -0.000 -0.056   -0.000 -0.083  0.000
 C         -0.058 -0.000 -0.027    0.061  0.000  0.085    0.000  0.054 -0.000
 C         -0.036  0.045  0.098    0.083  0.013  0.054    0.031  0.044  0.042
 C         -0.036 -0.045  0.098    0.083 -0.013  0.054   -0.031  0.044 -0.042
 H          0.055  0.018  0.032   -0.223 -0.045 -0.056    0.156 -0.053 -0.104
 H         -0.232  0.000  0.153    0.388 -0.000 -0.267    0.000 -0.098  0.000
 H          0.055 -0.018  0.032   -0.223  0.045 -0.056   -0.156 -0.053  0.104
 H          0.098  0.310 -0.301   -0.129  0.104 -0.130   -0.007  0.187 -0.186
 H         -0.036 -0.357  0.069   -0.058  0.144 -0.228   -0.037  0.010 -0.116
 H          0.049 -0.261 -0.001   -0.128 -0.361  0.210   -0.015 -0.186  0.059
 H         -0.036  0.357  0.069   -0.058 -0.144 -0.228    0.037  0.010  0.116
 H          0.098 -0.310 -0.301   -0.129 -0.104 -0.130    0.007  0.187  0.185
 H          0.049  0.261 -0.001   -0.128  0.361  0.210    0.015 -0.186 -0.059
 Br         0.000  0.000 -0.000    0.001 -0.000 -0.000    0.000 -0.000  0.000
 C         -0.001 -0.000  0.000   -0.001 -0.000 -0.000   -0.000  0.002 -0.000
 N         -0.001  0.000  0.001   -0.001  0.000  0.001   -0.000 -0.000  0.000
 TransDip   0.091  0.000 -0.130   -0.263 -0.000 -0.148   -0.000 -0.383  0.000

 Mode:                25                     26                     27
 Frequency:       936.03                1273.97                1274.12
 Force Cnst:      0.6460                 1.2276                 1.2259
 Red. Mass:       1.2514                 1.2838                 1.2817
 IR Active:          YES                    YES                    YES
 IR Intens:      194.477                 39.573                 43.681
 Raman Active:       YES                    YES                    YES
               X      Y      Z        X      Y      Z        X      Y      Z
 H          0.623 -0.000 -0.588   -0.015  0.000  0.016   -0.000 -0.019  0.000
 Si        -0.048  0.000  0.053    0.012 -0.000 -0.011    0.000  0.015 -0.000
 C         -0.020 -0.000 -0.070   -0.120  0.000  0.057   -0.000 -0.004  0.000
 C          0.046 -0.004 -0.009   -0.010 -0.046  0.034   -0.013 -0.092  0.060
 C          0.046  0.004 -0.009   -0.010  0.047  0.034    0.013 -0.092 -0.059
 H          0.199  0.019  0.008    0.438 -0.182 -0.089    0.001  0.002  0.008
 H         -0.198  0.000  0.126    0.313 -0.000 -0.374    0.001  0.017 -0.001
 H          0.199 -0.019  0.008    0.438  0.182 -0.089    0.002  0.003 -0.009
 H         -0.075 -0.025  0.012    0.045  0.106 -0.179    0.067  0.196 -0.344
 H         -0.004  0.171 -0.100   -0.064  0.178 -0.086   -0.112  0.355 -0.159
 H         -0.063 -0.043  0.083    0.102  0.176 -0.062    0.173  0.353 -0.097
 H         -0.004 -0.171 -0.100   -0.064 -0.180 -0.087    0.112  0.354  0.158
 H         -0.075  0.025  0.012    0.045 -0.108 -0.181   -0.067  0.195  0.343
 H         -0.063  0.043  0.083    0.103 -0.178 -0.062   -0.173  0.352  0.096
 Br        -0.000  0.000  0.001    0.000  0.000  0.000    0.000 -0.000  0.000
 C         -0.002 -0.000 -0.002   -0.000 -0.000 -0.000   -0.000  0.000 -0.000
 N         -0.001  0.000  0.001    0.000  0.000  0.000    0.000 -0.000  0.000
 TransDip  -0.360  0.000  0.264    0.142 -0.001 -0.143    0.000  0.212 -0.000

 Mode:                28                     29                     30
 Frequency:      1281.95                1425.19                1427.62
 Force Cnst:      1.2073                 1.2588                 1.2605
 Red. Mass:       1.2469                 1.0519                 1.0497
 IR Active:          YES                    YES                    YES
 IR Intens:       10.419                  0.120                  0.049
 Raman Active:       YES                    YES                    YES
               X      Y      Z        X      Y      Z        X      Y      Z
 H         -0.013 -0.000 -0.010   -0.000 -0.001  0.000    0.000 -0.010 -0.000
 Si        -0.002  0.000 -0.004    0.000 -0.000 -0.000   -0.000 -0.001 -0.000
 C          0.071 -0.000 -0.031    0.000 -0.040  0.000    0.000 -0.010  0.000
 C         -0.010 -0.072  0.050   -0.016  0.019  0.024    0.040  0.005  0.014
 C         -0.010  0.072  0.050    0.016  0.019 -0.024   -0.040  0.005 -0.014
 H         -0.277  0.107  0.050    0.264  0.034  0.153    0.076  0.009  0.041
 H         -0.193  0.000  0.232   -0.000  0.467 -0.000   -0.000  0.131  0.000
 H         -0.277 -0.107  0.050   -0.264  0.034 -0.153   -0.076  0.009 -0.041
 H          0.052  0.171 -0.293    0.094 -0.085  0.187   -0.497 -0.013 -0.056
 H         -0.099  0.295 -0.146   -0.143  0.003 -0.264   -0.055 -0.330 -0.187
 H          0.152  0.295 -0.086    0.260 -0.164 -0.242    0.008  0.286  0.049
 H         -0.099 -0.295 -0.145    0.143  0.004  0.264    0.055 -0.330  0.187
 H          0.052 -0.171 -0.293   -0.094 -0.085 -0.187    0.497 -0.013  0.056
 H          0.152 -0.295 -0.086   -0.260 -0.164  0.242   -0.008  0.286 -0.049
 Br        -0.000  0.000  0.000    0.000 -0.000  0.000    0.000 -0.000 -0.000
 C         -0.000  0.000 -0.000   -0.000  0.000 -0.000    0.000  0.000 -0.000
 N          0.000 -0.000 -0.000   -0.000 -0.000  0.000   -0.000  0.000 -0.000
 TransDip  -0.068  0.000 -0.078    0.000  0.011  0.000    0.000  0.007 -0.000

 Mode:                31                     32                     33
 Frequency:      1428.40                1436.67                1437.38
 Force Cnst:      1.2616                 1.2721                 1.2733
 Red. Mass:       1.0495                 1.0461                 1.0460
 IR Active:          YES                    YES                    YES
 IR Intens:        0.270                  2.651                  2.976
 Raman Active:       YES                    YES                    YES
               X      Y      Z        X      Y      Z        X      Y      Z
 H         -0.007  0.000  0.007    0.000  0.029 -0.000    0.022 -0.000 -0.021
 Si        -0.000 -0.000  0.000   -0.000 -0.008  0.000   -0.005  0.000  0.005
 C         -0.019 -0.000 -0.043    0.000 -0.043  0.000    0.008  0.000  0.014
 C          0.010  0.014  0.022    0.003 -0.014 -0.023   -0.031  0.017  0.017
 C          0.010 -0.014  0.022   -0.003 -0.014  0.023   -0.031 -0.017  0.017
 H          0.048  0.296  0.398    0.318  0.038  0.174   -0.022 -0.104 -0.142
 H          0.167  0.000 -0.220   -0.000  0.540  0.000   -0.065 -0.000  0.086
 H          0.047 -0.296  0.398   -0.318  0.038 -0.174   -0.022  0.104 -0.142
 H         -0.181 -0.066  0.099    0.039  0.078 -0.145    0.294 -0.094  0.230
 H         -0.122 -0.156 -0.270    0.136  0.065  0.274   -0.129  0.140 -0.211
 H          0.178  0.030 -0.138   -0.226  0.063  0.195    0.269 -0.290 -0.274
 H         -0.122  0.156 -0.270   -0.137  0.065 -0.274   -0.129 -0.140 -0.211
 H         -0.181  0.066  0.099   -0.039  0.078  0.146    0.294  0.094  0.230
 H          0.178 -0.030 -0.138    0.226  0.063 -0.195    0.269  0.290 -0.273
 Br         0.000 -0.000  0.000   -0.000  0.000  0.000    0.000 -0.000  0.000
 C         -0.000  0.000 -0.000   -0.000 -0.000 -0.000   -0.000  0.000 -0.000
 N          0.000 -0.000 -0.000    0.000  0.000 -0.000    0.000 -0.000 -0.000
 TransDip  -0.017  0.000  0.001    0.000  0.052 -0.000    0.020 -0.000 -0.052

 Mode:                34                     35                     36
 Frequency:      1444.55                2168.35                2381.83
 Force Cnst:      1.2835                 2.8774                42.5807
 Red. Mass:       1.0440                 1.0387                12.7392
 IR Active:          YES                    YES                    YES
 IR Intens:       10.011                277.982                 27.129
 Raman Active:       YES                    YES                    YES
               X      Y      Z        X      Y      Z        X      Y      Z
 H         -0.006  0.000 -0.003    0.689  0.000  0.724   -0.024 -0.000 -0.020
 Si        -0.006 -0.000 -0.007   -0.023 -0.000 -0.025    0.000  0.000  0.001
 C         -0.012 -0.000 -0.030   -0.001 -0.000 -0.001    0.000 -0.000 -0.000
 C         -0.024 -0.010 -0.017   -0.001 -0.000 -0.001    0.000 -0.000  0.000
 C         -0.024  0.010 -0.017   -0.001  0.000 -0.001    0.000  0.000  0.000
 H          0.028  0.231  0.309   -0.001  0.003 -0.002   -0.000 -0.000  0.000
 H          0.137 -0.000 -0.175   -0.010  0.000  0.003   -0.000 -0.000  0.000
 H          0.028 -0.230  0.309   -0.001 -0.003 -0.002   -0.000  0.000  0.000
 H          0.367  0.048 -0.031    0.001 -0.002 -0.003    0.000  0.000  0.000
 H          0.095  0.270  0.243   -0.003  0.002  0.000   -0.002  0.001 -0.001
 H         -0.103 -0.178  0.053   -0.000  0.007 -0.006    0.001 -0.000 -0.001
 H          0.095 -0.270  0.243   -0.003 -0.002  0.000   -0.002 -0.001 -0.001
 H          0.367 -0.048 -0.031    0.001  0.002 -0.003    0.000 -0.000  0.000
 H         -0.103  0.178  0.053   -0.000 -0.007 -0.006    0.001  0.000 -0.001
 Br         0.000  0.000 -0.000    0.000  0.000 -0.000   -0.012  0.000  0.004
 C         -0.000 -0.000 -0.000    0.001 -0.000 -0.000    0.748 -0.000 -0.265
 N         -0.000  0.000  0.000   -0.002  0.000  0.001   -0.573  0.000  0.202
 TransDip   0.069  0.000  0.074   -0.454 -0.000 -0.281    0.160 -0.000 -0.048

 Mode:                37                     38                     39
 Frequency:      3047.64                3047.91                3048.79
 Force Cnst:      5.6755                 5.6771                 5.6789
 Red. Mass:       1.0371                 1.0372                 1.0370
 IR Active:          YES                    YES                    YES
 IR Intens:        2.104                  3.722                  4.021
 Raman Active:       YES                    YES                    YES
               X      Y      Z        X      Y      Z        X      Y      Z
 H          0.000 -0.000  0.001    0.000  0.001  0.000    0.001 -0.000 -0.000
 Si         0.000  0.000 -0.001    0.000 -0.001 -0.000   -0.001  0.000  0.001
 C          0.004  0.000 -0.002    0.000 -0.000 -0.000    0.048 -0.000 -0.018
 C         -0.003 -0.029  0.021    0.003  0.029 -0.022    0.000  0.003 -0.002
 C         -0.003  0.029  0.021   -0.003  0.029  0.022    0.000 -0.003 -0.002
 H         -0.006 -0.042  0.030    0.001  0.003 -0.002   -0.062 -0.453  0.317
 H         -0.037 -0.000 -0.038   -0.000 -0.000 -0.000   -0.428 -0.000 -0.431
 H         -0.006  0.042  0.029   -0.001  0.003  0.003   -0.062  0.453  0.317
 H         -0.039  0.325  0.225    0.039 -0.322 -0.224    0.004 -0.031 -0.022
 H          0.361 -0.001 -0.162   -0.364  0.002  0.163   -0.030  0.001  0.013
 H         -0.290  0.012 -0.311    0.292 -0.012  0.313    0.027 -0.001  0.029
 H          0.360  0.001 -0.162    0.364  0.002 -0.163   -0.030 -0.001  0.013
 H         -0.039 -0.325  0.225   -0.039 -0.322  0.225    0.004  0.031 -0.022
 H         -0.290 -0.012 -0.310   -0.293 -0.012 -0.314    0.027  0.001  0.029
 Br        -0.000  0.000 -0.000   -0.000 -0.000 -0.000   -0.000 -0.000 -0.000
 C          0.000  0.000 -0.000    0.000 -0.000 -0.000   -0.000  0.000  0.000
 N         -0.000 -0.000  0.000   -0.000  0.000  0.000    0.000 -0.000 -0.000
 TransDip  -0.000 -0.000  0.046    0.000  0.062  0.000    0.060 -0.000 -0.023

 Mode:                40                     41                     42
 Frequency:      3138.75                3139.50                3141.79
 Force Cnst:      6.3939                 6.3956                 6.4054
 Red. Mass:       1.1015                 1.1013                 1.1014
 IR Active:          YES                    YES                    YES
 IR Intens:        0.514                 11.430                 14.213
 Raman Active:       YES                    YES                    YES
               X      Y      Z        X      Y      Z        X      Y      Z
 H          0.000  0.001  0.000    0.003  0.000  0.004    0.005  0.000  0.004
 Si        -0.000  0.000 -0.000   -0.001 -0.000 -0.000   -0.001 -0.000 -0.001
 C          0.000 -0.003  0.000    0.012  0.000  0.028   -0.034 -0.000 -0.080
 C          0.055  0.015  0.032   -0.048 -0.017 -0.034   -0.022 -0.001 -0.006
 C         -0.055  0.015 -0.032   -0.048  0.017 -0.034   -0.022  0.001 -0.006
 H          0.003  0.019 -0.014    0.021  0.116 -0.078   -0.060 -0.332  0.223
 H         -0.000 -0.001 -0.000   -0.183 -0.000 -0.176    0.535  0.000  0.509
 H         -0.003  0.019  0.014    0.021 -0.116 -0.078   -0.060  0.332  0.223
 H          0.033 -0.206 -0.132   -0.035  0.233  0.150   -0.006  0.024  0.014
 H         -0.319 -0.003  0.157    0.262  0.002 -0.131    0.147  0.003 -0.071
 H         -0.371  0.028 -0.411    0.355 -0.028  0.391    0.119 -0.010  0.135
 H          0.319 -0.003 -0.157    0.262 -0.002 -0.131    0.147 -0.003 -0.071
 H         -0.033 -0.206  0.132   -0.035 -0.233  0.150   -0.006 -0.024  0.014
 H          0.371  0.028  0.411    0.355  0.028  0.391    0.119  0.010  0.135
 Br         0.000  0.000 -0.000   -0.000 -0.000  0.000   -0.000  0.000 -0.000
 C          0.000 -0.000  0.000    0.000 -0.000 -0.000    0.000 -0.000 -0.000
 N         -0.000  0.000 -0.000   -0.000  0.000  0.000   -0.000  0.000  0.000
 TransDip  -0.000  0.023 -0.000   -0.102 -0.000 -0.037   -0.080 -0.000 -0.091

 Mode:                43                     44                     45
 Frequency:      3144.16                3144.59                3147.04
 Force Cnst:      6.4172                 6.4182                 6.4299
 Red. Mass:       1.1018                 1.1016                 1.1019
 IR Active:          YES                    YES                    YES
 IR Intens:        3.456                 13.677                  9.025
 Raman Active:       YES                    YES                    YES
               X      Y      Z        X      Y      Z        X      Y      Z
 H         -0.000  0.001  0.000    0.001  0.000 -0.002    0.000  0.002 -0.000
 Si         0.000 -0.000 -0.000   -0.000 -0.000  0.001   -0.000 -0.001  0.000
 C         -0.000  0.011 -0.000    0.004  0.000  0.011   -0.000 -0.092  0.000
 C          0.035 -0.035 -0.043   -0.037  0.034  0.041    0.002 -0.005 -0.006
 C         -0.035 -0.035  0.043   -0.037 -0.034  0.041   -0.002 -0.005  0.006
 H         -0.011 -0.065  0.047    0.009  0.046 -0.032    0.095  0.559 -0.409
 H          0.000  0.002  0.000   -0.068 -0.000 -0.065    0.000 -0.015  0.000
 H          0.011 -0.065 -0.047    0.009 -0.046 -0.032   -0.095  0.559  0.408
 H         -0.045  0.439  0.287    0.043 -0.424 -0.277   -0.006  0.061  0.039
 H         -0.418 -0.013  0.189    0.434  0.014 -0.197   -0.035 -0.001  0.016
 H          0.045 -0.008  0.036   -0.029  0.007 -0.018    0.016 -0.002  0.016
 H          0.417 -0.013 -0.188    0.435 -0.014 -0.197    0.035 -0.001 -0.016
 H          0.045  0.438 -0.286    0.043  0.425 -0.278    0.006  0.061 -0.039
 H         -0.045 -0.008 -0.036   -0.029 -0.007 -0.018   -0.016 -0.002 -0.016
 Br         0.000 -0.000 -0.000   -0.000 -0.000  0.000   -0.000 -0.000  0.000
 C         -0.000 -0.000  0.000    0.000 -0.000 -0.000    0.000  0.000 -0.000
 N          0.000  0.000 -0.000   -0.000  0.000  0.000   -0.000  0.000  0.000
 TransDip   0.000 -0.060 -0.000   -0.084 -0.000  0.084   -0.000 -0.096  0.000

 STANDARD THERMODYNAMIC QUANTITIES AT   298.15 K  AND     1.00 ATM

   This Molecule has  0 Imaginary Frequencies
   Zero point vibrational energy:       80.053 kcal/mol

   Atom    1 Element H  Has Mass    1.00783
   Atom    2 Element Si Has Mass   27.97693
   Atom    3 Element C  Has Mass   12.00000
   Atom    4 Element C  Has Mass   12.00000
   Atom    5 Element C  Has Mass   12.00000
   Atom    6 Element H  Has Mass    1.00783
   Atom    7 Element H  Has Mass    1.00783
   Atom    8 Element H  Has Mass    1.00783
   Atom    9 Element H  Has Mass    1.00783
   Atom   10 Element H  Has Mass    1.00783
   Atom   11 Element H  Has Mass    1.00783
   Atom   12 Element H  Has Mass    1.00783
   Atom   13 Element H  Has Mass    1.00783
   Atom   14 Element H  Has Mass    1.00783
   Atom   15 Element Br Has Mass   78.91830
   Atom   16 Element C  Has Mass   12.00000
   Atom   17 Element N  Has Mass   14.00307
   Molecular Mass:   178.976600 amu
   Principal axes and moments of inertia in amu*Bohr^2:
                             1           2           3
    Eigenvalues --      526.53787  4069.10258  4124.27587
          X              -0.99999     0.00000     0.00407
          Y              -0.00000    -1.00000     0.00004
          Z              -0.00407    -0.00004    -0.99999
   Rotational Symmetry Number is   1
   The Molecule is an Asymmetric Top
   Translational Enthalpy:        0.889 kcal/mol
   Rotational Enthalpy:           0.889 kcal/mol
   Vibrational Enthalpy:         86.190 kcal/mol
   gas constant (RT):             0.592 kcal/mol
   Translational Entropy:        41.453  cal/mol.K
   Rotational Entropy:           30.559  cal/mol.K
   Vibrational Entropy:          45.864  cal/mol.K

   Total Enthalpy:               88.560 kcal/mol
   Total Entropy:               117.876  cal/mol.K

   Quasi-RRHO corrections using alpha = 4, and omega = 100 cm^-1
   QRRHO-Vib. Enthalpy:          84.568 kcal/mol
   QRRHO-Vib. Entropy:           38.694  cal/mol.K
   QRRHO-Total Enthalpy:         86.938 kcal/mol
   QRRHO-Total Entropy:         110.706  cal/mol.K
 Total job time:  11012.57s(wall), 137918.32s(cpu) 
 Tue Jun 11 20:29:16 2024

        *************************************************************
        *                                                           *
        *  Thank you very much for using Q-Chem.  Have a nice day.  *
        *                                                           *
        *************************************************************


