
Running Job 1 of 2 Me3SiH_ICN_vfb_backward.in
qchem Me3SiH_ICN_vfb_backward.in_2648479.0 /data/scratch/Me3SiH_ICN_vfb_backward20240611033149/ 1
/opt/qchem/6.1/exe/qcprog.exe_s Me3SiH_ICN_vfb_backward.in_2648479.0 /data/scratch/Me3SiH_ICN_vfb_backward20240611033149/
                  Welcome to Q-Chem
     A Quantum Leap Into The Future Of Chemistry


 Q-Chem 6.1, Q-Chem, Inc., Pleasanton, CA (2023)

 E. Epifanovsky,  A. T. B. Gilbert,  Xintian Feng,  Joonho Lee,  Yuezhi Mao,  
 N. Mardirossian,  P. Pokhilko,  A. White,  M. Wormit,  M. P. Coons,  
 A. L. Dempwolff,  Zhengting Gan,  D. Hait,  P. R. Horn,  L. D. Jacobson,  
 I. Kaliman,  J. Kussmann,  A. W. Lange,  Ka Un Lao,  D. S. Levine,  Jie Liu,  
 S. C. McKenzie,  A. F. Morrison,  K. D. Nanda,  F. Plasser,  D. R. Rehn,  
 M. L. Vidal,  Zhi-Qiang You,  Ying Zhu,  B. Alam,  B. Albrecht,  
 A. Aldossary,  E. Alguire,  J. H. Andersen,  V. Athavale,  D. Barton,  
 K. Begam,  A. Behn,  N. Bellonzi,  Y. A. Bernard,  E. J. Berquist,  
 H. Burton,  A. Carreras,  K. Carter-Fenk,  Mathew Chow,  Romit Chakraborty,  
 Chandrima Chakravarty,  Junhan Chen,  A. D. Chien,  K. D. Closser,  
 V. Cofer-Shabica,  L. Cunha,  S. Dasgupta,  Jia Deng,  M. de Wergifosse,  
 M. Diedenhofen,  Hainam Do,  S. Ehlert,  Po-Tung Fang,  S. Fatehi,  
 Qingguo Feng,  T. Friedhoff,  Thomas Froitzheim,  B. Ganoe,  J. Gayvert,  
 Qinghui Ge,  G. Gidofalvi,  M. Gimferrer,  M. Goldey,  Montgomery Gray,  
 J. Gomes,  C. Gonzalez-Espinoza,  S. Gulania,  A. Gunina,  J. A. Gyamfi,  
 M. W. D. Hanson-Heine,  P. H. P. Harbach,  A. W. Hauser,  M. F. Herbst,  
 M. Hernandez Vera,  M. Hodecker,  Z. C. Holden,  S. Houck,  Xunkun Huang,  
 Kerwin Hui,  B. C. Huynh,  K. Ikeda,  M. Ivanov,  Hyunjun Ji,  Zuxin Jin,  
 Hanjie Jiang,  Subrata Jana,  B. Kaduk,  S. Kaehler,  R. Kang,  
 K. Khistyaev,  Jaehoon Kim,  Yongbin Kim,  P. Klunzinger,  Z. Koczor-Benda,  
 Joong Hoon Koh,  D. Kosenkov,  Saikiran Kotaru,  L. Koulias,  T. Kowalczyk,  
 C. M. Krauter,  K. Kue,  A. Kunitsa,  T. Kus,  A. Landau,  K. V. Lawler,  
 D. Lefrancois,  S. Lehtola,  Rain Li,  Shaozhi Li,  Yi-Pei Li,  
 Jiashu Liang,  M. Liebenthal,  Hung-Hsuan Lin,  You-Sheng Lin,  Fenglai Liu,  
 Kuan-Yu Liu,  Xiao Liu,  M. Loipersberger,  A. Luenser,  C. Malbon,  
 A. Manjanath,  P. Manohar,  E. Mansoor,  S. F. Manzer,  Shan-Ping Mao,  
 A. V. Marenich,  T. Markovich,  S. Mason,  F. Matz,  S. A. Maurer,  
 P. F. McLaughlin,  M. F. S. J. Menger,  J.-M. Mewes,  S. A. Mewes,  
 P. Morgante,  Mohammad Mostafanejad,  J. W. Mullinax,  K. J. Oosterbaan,  
 G. Paran,  V. Parravicini,  Alexander C. Paul,  Suranjan K. Paul,  
 F. Pavosevic,  Zheng Pei,  S. Prager,  E. I. Proynov,  E. Ramos,  B. Rana,  
 A. E. Rask,  A. Rettig,  R. M. Richard,  F. Rob,  E. Rossomme,  T. Scheele,  
 M. Scheurer,  M. Schneider,  P. E. Schneider,  Tim K. Schramm,  N. Sergueev,  
 S. M. Sharada,  M. Sharma,  Hengyuan Shen,  W. Skomorowski,  D. W. Small,  
 C. J. Stein,  Alistair J. Sterling,  Yingli Su,  Yu-Chuan Su,  
 E. J. Sundstrom,  J. Talbot,  Zhen Tao,  J. Thirman,  Hung-Yi Tsai,  
 T. Tsuchimochi,  N. M. Tubman,  C. Utku,  S. P. Veccham,  O. Vydrov,  
 J. Wenzel,  Jonathan Wong,  J. Witte,  A. Yamada,  Chou-Hsun Yang,  Kun Yao,  
 S. Yeganeh,  S. R. Yost,  A. Zech,  F. Zeller,  Igor Ying Zhang,  
 Xing Zhang,  Yu Zhang,  D. Zuev,  A. Aspuru-Guzik,  A. T. Bell,  
 N. A. Besley,  K. B. Bravaya,  B. R. Brooks,  D. Casanova,  Jeng-Da Chai,  
 Hsing-Ta Chen,  S. Coriani,  C. J. Cramer,  A. E. DePrince, III,  
 R. A. DiStasio Jr.,  A. Dreuw,  B. D. Dunietz,  T. R. Furlani,  
 W. A. Goddard III,  S. Grimme,  S. Hammes-Schiffer,  T. Head-Gordon,  
 W. J. Hehre,  Chao-Ping Hsu,  T.-C. Jagau,  Yousung Jung,  A. Klamt,  
 Jing Kong,  D. S. Lambrecht,  Xiangyuan Li,  WanZhen Liang,  N. J. Mayhall,  
 C. W. McCurdy,  J. B. Neaton,  T. Neudecker,  C. Ochsenfeld,  
 J. A. Parkhill,  R. Peverati,  V. A. Rassolov,  Haisheng Ren,  Yihan Shao,  
 L. V. Slipchenko,  R. P. Steele,  J. E. Subotnik,  A. J. W. Thom,  
 A. Tkatchenko,  D. G. Truhlar,  T. Van Voorhis,  Fan Wang,  
 T. A. Wesolowski,  K. B. Whaley,  H. L. Woodcock III,  P. M. Zimmerman,  
 S. Faraji,  P. M. W. Gill,  M. Head-Gordon,  J. M. Herbert,  A. I. Krylov

 Contributors to earlier versions of Q-Chem not listed above: 
 R. D. Adamson,  B. Austin,  R. Baer,  J. Baker,  G. J. O. Beran,  
 K. Brandhorst,  S. T. Brown,  E. F. C. Byrd,  Arup K. Chakraborty,  
 G. K. L. Chan,  Chun-Min Chang,  Yunqing Chen,  C.-L. Cheng,  
 Siu Hung Chien,  D. M. Chipman,  D. L. Crittenden,  H. Dachsel,  
 R. J. Doerksen,  A. D. Dutoi,  R. G. Edgar,  J. Fosso-Tande,  
 L. Fusti-Molnar,  D. Ghosh,  A. Ghysels,  A. Golubeva-Zadorozhnaya,  
 J. Gonthier,  M. S. Gordon,  S. R. Gwaltney,  G. Hawkins,  J. E. Herr,  
 A. Heyden,  S. Hirata,  E. G. Hohenstein,  G. Kedziora,  F. J. Keil,  
 C. Kelley,  Jihan Kim,  R. A. King,  R. Z. Khaliullin,  P. P. Korambath,  
 W. Kurlancheek,  A. Laurent,  A. M. Lee,  M. S. Lee,  S. V. Levchenko,  
 Ching Yeh Lin,  D. Liotard,  E. Livshits,  R. C. Lochan,  I. Lotan,  
 L. A. Martinez-Martinez,  P. E. Maslen,  N. Nair,  D. P. O'Neill,  
 D. Neuhauser,  E. Neuscamman,  C. M. Oana,  R. Olivares-Amaya,  R. Olson,  
 T. M. Perrine,  B. Peters,  P. A. Pieniazek,  A. Prociuk,  Y. M. Rhee,  
 J. Ritchie,  M. A. Rohrdanz,  E. Rosta,  N. J. Russ,  H. F. Schaefer III,  
 M. W. Schmidt,  N. E. Schultz,  S. Sharma,  N. Shenvi,  C. D. Sherrill,  
 A. C. Simmonett,  A. Sodt,  T. Stein,  D. Stuck,  K. S. Thanthiriwatte,  
 V. Vanovschi,  L. Vogt,  Tao Wang,  A. Warshel,  M. A. Watson,  
 C. F. Williams,  Q. Wu,  X. Xu,  Jun Yang,  W. Zhang,  Yan Zhao

   Please cite Q-Chem as follows:
  "Software for the frontiers of quantum chemistry:
   An overview of developments in the Q-Chem 5 package"
   J. Chem. Phys. 155, 084801 (2021)
   https://doi.org/10.1063/5.0055522 (open access)

 Q-Chem 6.1.1 for Intel X86 EM64T Linux

 Parts of Q-Chem use Armadillo 9.900.5 (Nocturnal Misbehaviour).
 http://arma.sourceforge.net/

 Q-Chem begins on Tue Jun 11 03:31:50 2024  

 Host: 
0

     Scratch files written to /data/scratch/Me3SiH_ICN_vfb_backward20240611033149//
 Jan1824 |scratch|qcdevops|jenkins|workspace|build_RNUM -1
 Processing $rem in /opt/qchem/6.1/config/preferences:
 Processing $rem in /home/ymao/.qchemrc:

 Checking the input file for inconsistencies... 	...done.
 Reading auxiliary files from /opt/qchem/6.1/qcaux (QCAUX)

--------------------------------------------------------------
User input:
--------------------------------------------------------------
$molecule
0 1
--
0 1
H   -1.3553034289  -0.0000930241   0.9664648996
Si  -2.5356824489  -0.0000287250   0.0221300774
C   -2.4232162298  -1.5502718731  -1.0385199742
H   -1.5002998945  -1.5598392918  -1.6405405904
H   -2.4315848151  -2.4620695794  -0.4200447829
H   -3.2758814846  -1.6093902651  -1.7348260346
C   -4.0945972514  -0.0001711935   1.0738535108
H   -4.1405666004  -0.8906294315   1.7206683198
H   -4.9940529883  -0.0001218591   0.4363815958
H   -4.1406024983   0.8901489858   1.7208559087
C   -2.4232944334   1.5504291567  -1.0382141581
H   -3.2759610782   1.6096379283  -1.7345108650
H   -1.5003768531   1.5601648051  -1.6402300675
H   -2.4317143088   2.4621046266  -0.4195595939
--
0 1
I    1.2529846122   0.0000125519   0.2601081051
C    3.1990365395   0.0000549798  -0.2610677547
N    4.3171690258   0.0001708917  -0.5614860777
$end

$rem
JOBTYPE  OPT
GEN_SCFMAN  TRUE
VFB_CTA  BACKWARD
METHOD  WB97X-V
BASIS  DEF2-SVPD
UNRESTRICTED  FALSE
MAX_SCF_CYCLES  2000
THRESH  14
SCF_CONVERGENCE  9
MEM_TOTAL  8000
MEM_STATIC  2000
SCF_GUESS  FRAGMO
SYMMETRY  FALSE
SYM_IGNORE  FALSE
SCF_ALGORITHM  DIIS
BASIS_LIN_DEP_THRESH  6
IDERIV  1
SCFMI_MODE  0
XC_GRID  000075000302
NL_GRID  1
FD_MAT_VEC_PROD  FALSE
GEOM_OPT_TOL_GRADIENT  50
GEOM_OPT_TOL_DISPLACEMENT  50
GEOM_OPT_TOL_ENERGY  10
GEOM_OPT_DRIVER  OPTIMIZE
GEOM_OPT_MAX_CYCLES  200
$end

--------------------------------------------------------------
 ----------------------------------------------------------------
             Standard Nuclear Orientation (Angstroms)
    I     Atom           X                Y                Z
 ----------------------------------------------------------------
    1      H      -1.3351488160    -0.0000108346     0.9655126383
    2      Si     -2.5137778510     0.0000010801     0.0189945513
    3      C      -2.3993752876    -1.5503254883    -1.0413264310
    4      H      -1.4753463596    -1.5599549458    -1.6416369619
    5      H      -2.4089043727    -2.4620755239    -0.4227977560
    6      H      -3.2507512397    -1.6094828082    -1.7392050382
    7      C      -4.0746367229    -0.0000339203     1.0678306410
    8      H      -4.1218185960    -0.8904416672     1.7146276470
    9      H      -4.9729109588    -0.0000181931     0.4286949244
   10      H      -4.1218241432     0.8903367596     1.7146783873
   11      C      -2.3994006057     1.5503755568    -1.0412589254
   12      H      -3.2507759254     1.6095454008    -1.7391372704
   13      H      -1.4753701087     1.5600491666    -1.6415662299
   14      H      -2.4089498790     2.4620987064    -0.4226910339
   15      I       1.2744422231    -0.0000041284     0.2639849866
   16      C       3.2214555124    -0.0000350189    -0.2535878418
   17      N       4.3401421587     0.0000386924    -0.5519359960
 ----------------------------------------------------------------
 Molecular Point Group                 C1    NOp =  1
 Largest Abelian Subgroup              C1    NOp =  1
 Nuclear Repulsion Energy =         436.60697946 hartrees
 There are       40 alpha and       40 beta electrons
 Requested basis set is def2-SVPD
 There are 103 shells and 239 basis functions

 Total QAlloc Memory Limit   8000 MB
 Mega-Array Size      1956 MB
 MEM_STATIC part      2000 MB

 A cutoff of  1.0D-14 yielded   4907 shell pairs
 There are     26479 function pairs (     29928 Cartesian)
 Requested basis set is def2-SVPD
 Compound shells will be simplified
 There are 103 shells and 239 basis functions
 A cutoff of  1.0D-14 yielded   4907 shell pairs
 There are     26479 function pairs (     29928 Cartesian)
 Smallest overlap matrix eigenvalue = 1.50E-04

 Scale SEOQF with 1.000000e-01/1.000000e-01/1.000000e-01

 Standard Electronic Orientation quadrupole field applied
 Nucleus-field energy     =     0.0000000202 hartrees
 Attempting to make child job directory: /data/scratch/Me3SiH_ICN_vfb_backward20240611033149//Frg1/
 Attempting to make child job directory: /data/scratch/Me3SiH_ICN_vfb_backward20240611033149//Frg2/
 Creating input file /data/scratch/Me3SiH_ICN_vfb_backward20240611033149/Frg1.input
 using default PutDataFrgm: nothing
 calling putenv with: QCSCRATCH=/data/scratch/Me3SiH_ICN_vfb_backward20240611033149/ 
 Spawning Job For Fragment 0
 Done Job For Fragment 0
 calling putenv with: QCSCRATCH=/data/scratch 
 calling putenv with: QCTHREADS=16 
 Creating input file /data/scratch/Me3SiH_ICN_vfb_backward20240611033149/Frg2.input
 using default PutDataFrgm: nothing
 calling putenv with: QCSCRATCH=/data/scratch/Me3SiH_ICN_vfb_backward20240611033149/ 
 Spawning Job For Fragment 1
 Done Job For Fragment 1
 calling putenv with: QCSCRATCH=/data/scratch 
 calling putenv with: QCTHREADS=16 
 Time for running child jobs:  CPU 1.97 s  wall 22.21 s

 -----------------------------------------------------------------------
  General SCF calculation program by
  Eric Jon Sundstrom, Paul Horn, Yuezhi Mao, Dmitri Zuev, Alec White,
  David Stuck, Shaama M.S., Shane Yost, Joonho Lee, David Small,
  Daniel Levine, Susi Lehtola, Hugh Burton, Evgeny Epifanovsky,
  Bang C. Huynh
 -----------------------------------------------------------------------
Performing Restricted Closed Shell SCFMI
Doing General SCFMI
 Exchange:     0.1670 Hartree-Fock + 1.0000 wB97X-V + LR-HF
 Correlation:  1.0000 wB97X-V
 Using Euler-Maclaurin-Lebedev (75,302) quadrature formula
 Nonlocal Correlation:  VV10 with C = 0.0100 and b = 6.00 and scale = 1.00000
 Grid used for NLC:  SG-1 standard quadrature
performing fock build before subrot guess so that all methods have access
 using 16 threads for integral computing
 -------------------------------------------------------
 OpenMP Integral computing Module                
 Release: version 1.0, May 2013, Q-Chem Inc. Pittsburgh 
 -------------------------------------------------------
Printing subrot_rss_gen Method Specification:
Occupied Subspace Method is 0
Virtual Subspace Method is 0
Energy prior to optimization (guess energy) = -800.014769443131
Begin Timing: Total SCF Calculation
begin iterations for algorithm: DIIS         
the SCF tolerance is set to 1.00e-09
    1    -800.0147694431      2.26e-04     00000 
    2    -800.0169610201      8.23e-05     00000 
    3    -800.0171991767      4.30e-05     00000 
    4    -800.0172484258      2.76e-05     00000 
    5    -800.0172614817      1.47e-05     00000 
    6    -800.0172663187      6.38e-06     00000 
    7    -800.0172673070      2.46e-06     00000 
    8    -800.0172674177      7.01e-07     00000 
    9    -800.0172674288      2.89e-07     00000 
   10    -800.0172674307      1.36e-07     00000 
   11    -800.0172674313      5.07e-08     00000 
   12    -800.0172674314      1.37e-08     00000 
   13    -800.0172674314      4.81e-09     00000 
   14    -800.0172674314      2.13e-09     00000 
   15    -800.0172674314      1.04e-09     00000 
   16    -800.0172674314      4.21e-10     00000 Convergence criterion met
write pseudocanon occs and virts to disk
write pseudocanon orbital energies to disk
Timing for Total SCF: 43.00s (wall), 680.68s (cpu)
SCFMI Energy    -800.0172674314
<S^2>            0.00000
====================================================================
           Variational forward-backward (VFB) CT analysis           
 M. Loipersberger, Y. Mao and M. Head-Gordon, JCTC, 16, 1073 (2020) 
====================================================================
Calculating stabilization due to the backward (2->1) CT
Requested donor fragment: 2
updated OccSS dimension
        21
        19
updated VirtSS dimension
          143
          199
Energy prior to optimization (guess energy) = -800.017267431395
Begin Timing: Total SCF Calculation
begin iterations for algorithm: DIIS         
the SCF tolerance is set to 1.00e-09
    1    -800.0172674314      1.66e-04     00000 
    2    -800.0183553790      1.66e-05     00000 
    3    -800.0183791671      2.99e-06     00000 
    4    -800.0183798448      1.68e-06     00000 
    5    -800.0183799480      8.93e-07     00000 
    6    -800.0183799796      3.33e-07     00000 
    7    -800.0183799886      1.29e-07     00000 
    8    -800.0183799906      5.18e-08     00000 
    9    -800.0183799909      1.22e-08     00000 
   10    -800.0183799909      4.58e-09     00000 
   11    -800.0183799909      1.72e-09     00000 
   12    -800.0183799909      7.36e-10     00000 Convergence criterion met
write pseudocanon occs and virts to disk
write pseudocanon orbital energies to disk
Timing for Total SCF: 32.00s (wall), 507.01s (cpu)
Energy of the one-side CT state:     -800.0183799909
Stabilization due to one-side CT:    -2.9211 kJ/mol
<S^2>            0.00000
 Total energy in the final basis set =     -800.0183799909
    ==================================================
        The end of Object-Oriented SCFman: SCFMI      
    ==================================================
 
 --------------------------------------------------------------
 
                    Orbital Energies (a.u.)
 --------------------------------------------------------------
 
 Alpha MOs
 -- Occupied --
-66.1390 -14.4409 -10.3566 -10.2790 -10.2790 -10.2789  -7.0064  -5.3942
 -5.0443  -5.0232  -5.0231  -3.7486  -3.7474  -3.7474  -2.0969  -2.0899
 -2.0898  -2.0724  -2.0724  -1.0424  -0.8979  -0.8547  -0.8140  -0.8139
 -0.6243  -0.5979  -0.5424  -0.5308  -0.5301  -0.5108  -0.5105  -0.4995
 -0.4920  -0.4919  -0.4859  -0.4258  -0.4203  -0.4202  -0.3945  -0.3942
 -- Virtual --
  0.0210   0.0575   0.0675   0.0709   0.0763   0.0889   0.0923   0.1047
  0.1140   0.1150   0.1383   0.1428   0.1455   0.1503   0.1583   0.1670
  0.1678   0.1785   0.1880   0.1895   0.1946   0.2025   0.2079   0.2166
  0.2229   0.2286   0.2300   0.2311   0.2714   0.2784   0.2824   0.2834
  0.2942   0.3030   0.3034   0.3153   0.3215   0.3311   0.3396   0.3493
  0.3535   0.3649   0.3779   0.3810   0.3879   0.3897   0.4018   0.4054
  0.4084   0.4132   0.4162   0.4319   0.4341   0.4365   0.4422   0.4448
  0.4578   0.4607   0.4660   0.4676   0.4702   0.4714   0.4868   0.4940
  0.4981   0.5064   0.5196   0.5227   0.5273   0.5274   0.5358   0.5367
  0.5425   0.5452   0.5609   0.5781   0.5813   0.5944   0.5945   0.6000
  0.6035   0.6090   0.6182   0.6310   0.6342   0.6398   0.6507   0.6558
  0.6866   0.6906   0.6952   0.7054   0.7115   0.7236   0.7492   0.7629
  0.7803   0.7887   0.8223   0.8405   0.8634   0.8648   0.8783   0.8875
  0.9014   0.9145   0.9247   0.9489   0.9619   0.9823   1.0039   1.0228
  1.0353   1.0355   1.0569   1.0758   1.0807   1.0831   1.0905   1.0926
  1.1161   1.1612   1.1620   1.1645   1.1838   1.2367   1.2421   1.2652
  1.2692   1.2700   1.2971   1.3140   1.3401   1.3407   1.3559   1.3901
  1.3912   1.4343   1.4471   1.6455   1.6775   1.6945   1.7119   1.7451
  1.7649   1.7848   1.8005   1.8071   1.8160   1.8604   1.8622   1.8939
  1.8990   1.9115   1.9422   2.0135   2.0143   2.0150   2.0217   2.0499
  2.0574   2.0693   2.0912   2.1246   2.1351   2.1513   2.1924   2.2061
  2.2295   2.2381   2.3274   2.4452   2.4715   2.4719   2.5409   2.5421
  2.6027   2.6073   2.6079   2.6209   2.6241   2.6354   2.7318   2.8975
  2.9039   2.9063   2.9786   2.9798   3.1763   3.1804   3.1818   3.2113
  3.2189   3.2366   3.5728  18.9762  19.0412  19.8767  56.6396
 --------------------------------------------------------------
 
          Ground-State Mulliken Net Atomic Charges

     Atom                 Charge (a.u.)
  ----------------------------------------
      1 H                     0.223516
      2 Si                   -0.359495
      3 C                     0.093472
      4 H                    -0.017433
      5 H                    -0.028064
      6 H                    -0.016191
      7 C                     0.079425
      8 H                    -0.013221
      9 H                    -0.015996
     10 H                    -0.013219
     11 C                     0.093471
     12 H                    -0.016191
     13 H                    -0.017433
     14 H                    -0.028064
     15 I                     0.463393
     16 C                    -0.264520
     17 N                    -0.163450
  ----------------------------------------
  Sum of atomic charges =     0.000000

 -----------------------------------------------------------------
                    Cartesian Multipole Moments
 -----------------------------------------------------------------
    Charge (ESU x 10^10)
                 0.0000
    Dipole Moment (Debye)
         X      -5.0003      Y      -0.0001      Z       0.5069
       Tot       5.0260
    Quadrupole Moments (Debye-Ang)
        XX     -89.4929     XY      -0.0004     YY     -72.8895
        XZ       4.0522     YZ       0.0001     ZZ     -73.4925
    Octopole Moments (Debye-Ang^2)
       XXX     -56.6164    XXY      -0.0015    XYY      20.8720
       YYY      -0.0004    XXZ      16.6890    XYZ       0.0001
       YYZ       7.8883    XZZ      18.9517    YZZ       0.0001
       ZZZ      13.3825
    Hexadecapole Moments (Debye-Ang^3)
      XXXX   -3638.6843   XXXY      -0.0080   XXYY    -575.8825
      XYYY       0.0005   YYYY    -356.5645   XXXZ     133.7504
      XXYZ       0.0011   XYYZ      -2.8805   YYYZ       0.0000
      XXZZ    -578.2986   XYZZ      -0.0006   YYZZ    -112.4882
      XZZZ      23.1298   YZZZ      -0.0000   ZZZZ    -312.0296
 -----------------------------------------------------------------
 Calculating analytic gradient of the SCF energy
 Gradient of SCF Energy
            1           2           3           4           5           6
    1   0.0044500  -0.0011982   0.0002728  -0.0000574   0.0000091  -0.0000417
    2  -0.0000001   0.0000001   0.0000082   0.0000349   0.0000057   0.0000887
    3   0.0005971  -0.0022668   0.0001423   0.0000592  -0.0000197   0.0001102
            7           8           9          10          11          12
    1   0.0003071   0.0000044   0.0002043   0.0000044   0.0002729  -0.0000418
    2  -0.0000001   0.0000399   0.0000000  -0.0000399  -0.0000082  -0.0000887
    3   0.0006247  -0.0000227  -0.0002326  -0.0000226   0.0001423   0.0001103
           13          14          15          16          17
    1  -0.0000575   0.0000091  -0.0059262   0.0015302   0.0002585
    2  -0.0000349  -0.0000058   0.0000017  -0.0000039   0.0000024
    3   0.0000592  -0.0000197   0.0011176  -0.0002929  -0.0000859
 Max gradient component =       5.926E-03
 RMS gradient           =       1.141E-03
 Gradient time:  CPU 121.02 s  wall 7.66 s
 Geometry Optimization Parameters
   NAtoms,    NIC,     NZ,  NCons,   NDum,   NFix, NCnnct, MaxDiis
       17     109       0       0       0       0       0       0


** GEOMETRY OPTIMIZATION IN DELOCALIZED INTERNAL COORDINATES **
   Searching for a Minimum

   Optimization Cycle:   1

                       Coordinates (Angstroms)
     ATOM                X               Y               Z
      1  H        -1.3351488160   -0.0000108346    0.9655126383
      2  Si       -2.5137778510    0.0000010801    0.0189945513
      3  C        -2.3993752876   -1.5503254883   -1.0413264310
      4  H        -1.4753463596   -1.5599549458   -1.6416369619
      5  H        -2.4089043727   -2.4620755239   -0.4227977560
      6  H        -3.2507512397   -1.6094828082   -1.7392050382
      7  C        -4.0746367229   -0.0000339203    1.0678306410
      8  H        -4.1218185960   -0.8904416672    1.7146276470
      9  H        -4.9729109588   -0.0000181931    0.4286949244
     10  H        -4.1218241432    0.8903367596    1.7146783873
     11  C        -2.3994006057    1.5503755568   -1.0412589254
     12  H        -3.2507759254    1.6095454008   -1.7391372704
     13  H        -1.4753701087    1.5600491666   -1.6415662299
     14  H        -2.4089498790    2.4620987064   -0.4226910339
     15  I         1.2744422231   -0.0000041284    0.2639849866
     16  C         3.2214555124   -0.0000350189   -0.2535878418
     17  N         4.3401421587    0.0000386924   -0.5519359960
   Point Group: c1    Number of degrees of freedom:    45


   Energy is   -800.018379991


 Attempting to generate delocalized internal coordinates
 Initial Hessian constructed with Jon Baker's OPTIMIZE code

 45 Hessian modes will be used to form the next step
  Hessian Eigenvalues:
     0.002000    0.003490    0.003490    0.003650    0.019724    0.034532
     0.045174    0.045244    0.054350    0.054350    0.054701    0.055211
     0.055211    0.055448    0.145322    0.146038    0.146865    0.160000
     0.160000    0.160000    0.160000    0.160000    0.160000    0.160000
     0.160000    0.160000    0.160000    0.163607    0.200000    0.200000
     0.200000    0.200000    0.206079    0.206079    0.206774    0.334129
     0.334137    0.334137    0.334673    0.334673    0.334842    0.334842
     0.335120    0.335120    1.292527

 Minimum search - taking simple RFO step
 Searching for Lamda that Minimizes Along All modes
 Value Taken    Lamda =  -0.00090840
 Step Taken.  Stepsize is  0.204728

                             Maximum     Tolerance    Cnvgd?
         Gradient           0.003088      0.000050      NO
         Displacement       0.114102      0.000050      NO
         Energy change     *********      0.000000      NO


 New Cartesian Coordinates Obtained by Inverse Iteration

 Displacement from previous Coordinates is:  0.326626
 ----------------------------------------------------------------
             Standard Nuclear Orientation (Angstroms)
    I     Atom           X                Y                Z
 ----------------------------------------------------------------
    1      H      -1.3518088227    -0.0000175527     0.9634139997
    2      Si     -2.5303405068    -0.0000030977     0.0223454621
    3      C      -2.4185920015    -1.5497447247    -1.0403196409
    4      H      -1.4936935873    -1.5610530280    -1.6394936123
    5      H      -2.4307953109    -2.4620674239    -0.4226380358
    6      H      -3.2687992718    -1.6070065071    -1.7398848592
    7      C      -4.0946342802    -0.0000377062     1.0671465321
    8      H      -4.1425725250    -0.8903236139     1.7141793735
    9      H      -4.9932320975    -0.0000215724     0.4283816348
   10      H      -4.1425773428     0.8902106619     1.7142307213
   11      C      -2.4186132764     1.5497896892    -1.0402473800
   12      H      -3.2688188851     1.6070688144    -1.7398132131
   13      H      -1.4937128178     1.5611415712    -1.6394174015
   14      H      -2.4308349192     2.4620837298    -0.4225238429
   15      I       1.3661701176     0.0000175403     0.2514808099
   16      C       3.3090148158     0.0001545416    -0.2559920479
   17      N       4.4308897398    -0.0001284877    -0.5416682085
 ----------------------------------------------------------------
 Molecular Point Group                 C1    NOp =  1
 Largest Abelian Subgroup              C1    NOp =  1
 Nuclear Repulsion Energy =         432.97760017 hartrees
 There are       40 alpha and       40 beta electrons
 Applying Cartesian multipole field
    Component          Value
    ---------          -----
     (2,0,0)        1.00000E-11
     (0,2,0)        2.00000E-11
     (0,0,2)       -3.00000E-11
 Nucleus-field energy     =     0.0000000209 hartrees
 Requested basis set is def2-SVPD
 There are 103 shells and 239 basis functions
 A cutoff of  1.0D-14 yielded   4899 shell pairs
 There are     26431 function pairs (     29875 Cartesian)
 Requested basis set is def2-SVPD
 Compound shells will be simplified
 There are 103 shells and 239 basis functions
 A cutoff of  1.0D-14 yielded   4899 shell pairs
 There are     26431 function pairs (     29875 Cartesian)
 Smallest overlap matrix eigenvalue = 1.52E-04
 Attempting to make child job directory: /data/scratch/Me3SiH_ICN_vfb_backward20240611033149//Frg1/
 Failed to make child job directory:     /data/scratch/Me3SiH_ICN_vfb_backward20240611033149//Frg1/
 Attempting to make child job directory: /data/scratch/Me3SiH_ICN_vfb_backward20240611033149//Frg2/
 Failed to make child job directory:     /data/scratch/Me3SiH_ICN_vfb_backward20240611033149//Frg2/
 Creating input file /data/scratch/Me3SiH_ICN_vfb_backward20240611033149/Frg1.input
 using default PutDataFrgm: nothing
 calling putenv with: QCSCRATCH=/data/scratch/Me3SiH_ICN_vfb_backward20240611033149/ 
 Spawning Job For Fragment 0
 Done Job For Fragment 0
 calling putenv with: QCSCRATCH=/data/scratch 
 calling putenv with: QCTHREADS=16 
 Creating input file /data/scratch/Me3SiH_ICN_vfb_backward20240611033149/Frg2.input
 using default PutDataFrgm: nothing
 calling putenv with: QCSCRATCH=/data/scratch/Me3SiH_ICN_vfb_backward20240611033149/ 
 Spawning Job For Fragment 1
 Done Job For Fragment 1
 calling putenv with: QCSCRATCH=/data/scratch 
 calling putenv with: QCTHREADS=16 
 Time for running child jobs:  CPU 2.63 s  wall 22.35 s

 -----------------------------------------------------------------------
  General SCF calculation program by
  Eric Jon Sundstrom, Paul Horn, Yuezhi Mao, Dmitri Zuev, Alec White,
  David Stuck, Shaama M.S., Shane Yost, Joonho Lee, David Small,
  Daniel Levine, Susi Lehtola, Hugh Burton, Evgeny Epifanovsky,
  Bang C. Huynh
 -----------------------------------------------------------------------
Performing Restricted Closed Shell SCFMI
Doing General SCFMI
 Exchange:     0.1670 Hartree-Fock + 1.0000 wB97X-V + LR-HF
 Correlation:  1.0000 wB97X-V
 Using Euler-Maclaurin-Lebedev (75,302) quadrature formula
 Nonlocal Correlation:  VV10 with C = 0.0100 and b = 6.00 and scale = 1.00000
 Grid used for NLC:  SG-1 standard quadrature
performing fock build before subrot guess so that all methods have access
Printing subrot_rss_gen Method Specification:
Occupied Subspace Method is 0
Virtual Subspace Method is 0
Energy prior to optimization (guess energy) = -800.016155636810
Begin Timing: Total SCF Calculation
begin iterations for algorithm: DIIS         
the SCF tolerance is set to 1.00e-09
    1    -800.0161556368      1.99e-04     00000 
    2    -800.0179081862      7.32e-05     00000 
    3    -800.0181021887      3.73e-05     00000 
    4    -800.0181421685      2.31e-05     00000 
    5    -800.0181517014      1.28e-05     00000 
    6    -800.0181554425      4.84e-06     00000 
    7    -800.0181560471      1.73e-06     00000 
    8    -800.0181561084      4.20e-07     00000 
    9    -800.0181561129      1.70e-07     00000 
   10    -800.0181561135      7.71e-08     00000 
   11    -800.0181561137      2.81e-08     00000 
   12    -800.0181561137      7.60e-09     00000 
   13    -800.0181561137      2.31e-09     00000 
   14    -800.0181561137      8.38e-10     00000 Convergence criterion met
write pseudocanon occs and virts to disk
write pseudocanon orbital energies to disk
Timing for Total SCF: 37.00s (wall), 592.61s (cpu)
SCFMI Energy    -800.0181561137
<S^2>            0.00000
====================================================================
           Variational forward-backward (VFB) CT analysis           
 M. Loipersberger, Y. Mao and M. Head-Gordon, JCTC, 16, 1073 (2020) 
====================================================================
Calculating stabilization due to the backward (2->1) CT
Requested donor fragment: 2
updated OccSS dimension
        21
        19
updated VirtSS dimension
          143
          199
Energy prior to optimization (guess energy) = -800.018156113743
Begin Timing: Total SCF Calculation
begin iterations for algorithm: DIIS         
the SCF tolerance is set to 1.00e-09
    1    -800.0181561137      1.53e-04     00000 
    2    -800.0190043163      1.39e-05     00000 
    3    -800.0190206091      2.44e-06     00000 
    4    -800.0190210144      1.75e-06     00000 
    5    -800.0190211159      7.32e-07     00000 
    6    -800.0190211386      2.35e-07     00000 
    7    -800.0190211439      9.17e-08     00000 
    8    -800.0190211449      3.53e-08     00000 
    9    -800.0190211450      7.74e-09     00000 
   10    -800.0190211450      2.90e-09     00000 
   11    -800.0190211450      1.05e-09     00000 
   12    -800.0190211450      4.03e-10     00000 Convergence criterion met
write pseudocanon occs and virts to disk
write pseudocanon orbital energies to disk
Timing for Total SCF: 31.00s (wall), 494.92s (cpu)
Energy of the one-side CT state:     -800.0190211450
Stabilization due to one-side CT:    -2.2712 kJ/mol
<S^2>            0.00000
 Total energy in the final basis set =     -800.0190211450
    ==================================================
        The end of Object-Oriented SCFman: SCFMI      
    ==================================================
 
 --------------------------------------------------------------
 
                    Orbital Energies (a.u.)
 --------------------------------------------------------------
 
 Alpha MOs
 -- Occupied --
-66.1381 -14.4416 -10.3575 -10.2785 -10.2784 -10.2784  -7.0069  -5.3932
 -5.0447  -5.0237  -5.0237  -3.7477  -3.7465  -3.7465  -2.0974  -2.0904
 -2.0903  -2.0730  -2.0730  -1.0434  -0.8992  -0.8539  -0.8134  -0.8132
 -0.6219  -0.5997  -0.5419  -0.5301  -0.5295  -0.5100  -0.5098  -0.4989
 -0.4933  -0.4932  -0.4864  -0.4260  -0.4196  -0.4193  -0.3949  -0.3946
 -- Virtual --
  0.0199   0.0581   0.0676   0.0704   0.0759   0.0894   0.0923   0.1039
  0.1137   0.1146   0.1384   0.1432   0.1455   0.1499   0.1579   0.1675
  0.1675   0.1775   0.1872   0.1897   0.1949   0.2027   0.2069   0.2163
  0.2219   0.2268   0.2274   0.2305   0.2688   0.2778   0.2814   0.2836
  0.2938   0.3014   0.3045   0.3143   0.3221   0.3320   0.3393   0.3514
  0.3524   0.3633   0.3767   0.3825   0.3869   0.3903   0.4027   0.4046
  0.4079   0.4135   0.4166   0.4320   0.4331   0.4367   0.4431   0.4432
  0.4582   0.4596   0.4658   0.4672   0.4709   0.4710   0.4851   0.4946
  0.4962   0.5083   0.5204   0.5218   0.5235   0.5269   0.5349   0.5366
  0.5432   0.5456   0.5575   0.5767   0.5798   0.5944   0.5957   0.5977
  0.6036   0.6092   0.6201   0.6305   0.6311   0.6401   0.6483   0.6544
  0.6835   0.6887   0.6919   0.7020   0.7050   0.7224   0.7454   0.7642
  0.7742   0.7903   0.8117   0.8392   0.8598   0.8610   0.8769   0.8861
  0.9041   0.9124   0.9215   0.9492   0.9620   0.9811   0.9974   1.0191
  1.0356   1.0358   1.0521   1.0731   1.0800   1.0820   1.0902   1.0912
  1.1187   1.1588   1.1613   1.1652   1.1828   1.2273   1.2423   1.2645
  1.2663   1.2698   1.2940   1.3141   1.3385   1.3416   1.3527   1.3850
  1.3897   1.4313   1.4450   1.6435   1.6775   1.6951   1.7116   1.7457
  1.7646   1.7854   1.8012   1.8070   1.8160   1.8589   1.8610   1.8922
  1.8972   1.9118   1.9424   2.0140   2.0148   2.0148   2.0212   2.0500
  2.0568   2.0684   2.0909   2.1237   2.1352   2.1507   2.1926   2.2062
  2.2295   2.2380   2.3287   2.4463   2.4723   2.4727   2.5398   2.5410
  2.6029   2.6076   2.6079   2.6214   2.6244   2.6360   2.7329   2.8975
  2.9032   2.9062   2.9781   2.9794   3.1755   3.1811   3.1813   3.2118
  3.2195   3.2368   3.5710  18.9565  19.0131  19.8664  56.6188
 --------------------------------------------------------------
 
          Ground-State Mulliken Net Atomic Charges

     Atom                 Charge (a.u.)
  ----------------------------------------
      1 H                     0.287196
      2 Si                   -0.404892
      3 C                     0.090571
      4 H                    -0.018131
      5 H                    -0.027715
      6 H                    -0.016790
      7 C                     0.086668
      8 H                    -0.014485
      9 H                    -0.018056
     10 H                    -0.014483
     11 C                     0.090567
     12 H                    -0.016789
     13 H                    -0.018132
     14 H                    -0.027715
     15 I                     0.446114
     16 C                    -0.260975
     17 N                    -0.162953
  ----------------------------------------
  Sum of atomic charges =     0.000000

 -----------------------------------------------------------------
                    Cartesian Multipole Moments
 -----------------------------------------------------------------
    Charge (ESU x 10^10)
                -0.0000
    Dipole Moment (Debye)
         X      -4.9360      Y       0.0002      Z       0.4991
       Tot       4.9612
    Quadrupole Moments (Debye-Ang)
        XX     -90.1546     XY       0.0014     YY     -72.9395
        XZ       3.9988     YZ      -0.0002     ZZ     -73.5146
    Octopole Moments (Debye-Ang^2)
       XXX     -69.7839    XXY       0.0054    XYY      18.2981
       YYY      -0.0021    XXZ      17.1570    XYZ      -0.0008
       YYZ       8.1906    XZZ      16.4391    YZZ      -0.0004
       ZZZ      14.1030
    Hexadecapole Moments (Debye-Ang^3)
      XXXX   -3785.2442   XXXY       0.0245   XXYY    -593.8719
      XYYY      -0.0002   YYYY    -356.8263   XXXZ     136.1646
      XXYZ      -0.0034   XYYZ      -3.1126   YYYZ      -0.0016
      XXZZ    -595.9590   XYZZ      -0.0004   YYZZ    -112.3359
      XZZZ      22.9567   YZZZ      -0.0017   ZZZZ    -310.6431
 -----------------------------------------------------------------
 Calculating analytic gradient of the SCF energy
 Gradient of SCF Energy
            1           2           3           4           5           6
    1   0.0022359  -0.0005413   0.0002088  -0.0000703   0.0000051  -0.0000448
    2   0.0000003  -0.0000001   0.0000003   0.0000160   0.0000247   0.0000432
    3  -0.0000254  -0.0007776   0.0000909   0.0000009   0.0000077   0.0000347
            7           8           9          10          11          12
    1   0.0001024   0.0000241  -0.0000055   0.0000241   0.0002088  -0.0000447
    2   0.0000000   0.0000169   0.0000000  -0.0000169  -0.0000002  -0.0000432
    3   0.0002724  -0.0000481  -0.0000621  -0.0000481   0.0000909   0.0000347
           13          14          15          16          17
    1  -0.0000702   0.0000051  -0.0018189  -0.0002539   0.0000354
    2  -0.0000159  -0.0000246  -0.0000063   0.0000153  -0.0000093
    3   0.0000008   0.0000076   0.0003561  -0.0001116   0.0001765
 Max gradient component =       2.236E-03
 RMS gradient           =       4.353E-04
 Gradient time:  CPU 119.02 s  wall 7.54 s
 Geometry Optimization Parameters
   NAtoms,    NIC,     NZ,  NCons,   NDum,   NFix, NCnnct, MaxDiis
       17     109       0       0       0       0       0       0

 Cartesian Hessian Update
 Hessian updated using BFGS update


** GEOMETRY OPTIMIZATION IN DELOCALIZED INTERNAL COORDINATES **
   Searching for a Minimum

   Optimization Cycle:   2

                       Coordinates (Angstroms)
     ATOM                X               Y               Z
      1  H        -1.3518088227   -0.0000175527    0.9634139997
      2  Si       -2.5303405068   -0.0000030977    0.0223454621
      3  C        -2.4185920015   -1.5497447247   -1.0403196409
      4  H        -1.4936935873   -1.5610530280   -1.6394936123
      5  H        -2.4307953109   -2.4620674239   -0.4226380358
      6  H        -3.2687992718   -1.6070065071   -1.7398848592
      7  C        -4.0946342802   -0.0000377062    1.0671465321
      8  H        -4.1425725250   -0.8903236139    1.7141793735
      9  H        -4.9932320975   -0.0000215724    0.4283816348
     10  H        -4.1425773428    0.8902106619    1.7142307213
     11  C        -2.4186132764    1.5497896892   -1.0402473800
     12  H        -3.2688188851    1.6070688144   -1.7398132131
     13  H        -1.4937128178    1.5611415712   -1.6394174015
     14  H        -2.4308349192    2.4620837298   -0.4225238429
     15  I         1.3661701176    0.0000175403    0.2514808099
     16  C         3.3090148158    0.0001545416   -0.2559920479
     17  N         4.4308897398   -0.0001284877   -0.5416682085
   Point Group: c1    Number of degrees of freedom:    45


   Energy is   -800.019021145

 Hessian updated using BFGS update

 35 Hessian modes will be used to form the next step
  Hessian Eigenvalues:
     0.002000    0.003479    0.003490    0.003650    0.010284    0.034479
     0.045131    0.045244    0.054346    0.054350    0.054705    0.055211
     0.055211    0.055448    0.146038    0.146838    0.149071    0.159894
     0.161871    0.163200    0.199934    0.205694    0.206079    0.206368
     0.207254    0.334132    0.334137    0.334152    0.334661    0.334673
     0.334841    0.334842    0.335116    0.335120    1.292609

 Minimum search - taking simple RFO step
 Searching for Lamda that Minimizes Along All modes
 Value Taken    Lamda =  -0.00043794
 Step Taken.  Stepsize is  0.202073

                             Maximum     Tolerance    Cnvgd?
         Gradient           0.001192      0.000050      NO
         Displacement       0.110510      0.000050      NO
         Energy change     -0.000641      0.000000      NO


 New Cartesian Coordinates Obtained by Inverse Iteration

 Displacement from previous Coordinates is:  0.317059
 ----------------------------------------------------------------
             Standard Nuclear Orientation (Angstroms)
    I     Atom           X                Y                Z
 ----------------------------------------------------------------
    1      H      -1.3730540679     0.0000019884     0.9706736247
    2      Si     -2.5475260301     0.0000139053     0.0288432624
    3      C      -2.4331067532    -1.5492980410    -1.0354161256
    4      H      -1.5023281742    -1.5637063407    -1.6256872363
    5      H      -2.4544001989    -2.4624675356    -0.4191449991
    6      H      -3.2765036289    -1.6030367758    -1.7434154589
    7      C      -4.1193367319    -0.0000041040     1.0628824577
    8      H      -4.1717885521    -0.8901392964     1.7099994433
    9      H      -5.0140579780     0.0000098134     0.4189021001
   10      H      -4.1717856532     0.8901059065     1.7100342394
   11      C      -2.4331110239     1.5493575360    -1.0353687077
   12      H      -3.2765061074     1.6031126955    -1.7433691133
   13      H      -1.5023299814     1.5637882691    -1.6256349174
   14      H      -2.4544112212     2.4625080787    -0.4190698437
   15      I       1.4495519012    -0.0001428635     0.2424153535
   16      C       3.3981014349    -0.0011834564    -0.2469566799
   17      N       4.5096417941     0.0011430547    -0.5705071077
 ----------------------------------------------------------------
 Molecular Point Group                 C1    NOp =  1
 Largest Abelian Subgroup              C1    NOp =  1
 Nuclear Repulsion Energy =         429.57495395 hartrees
 There are       40 alpha and       40 beta electrons
 Applying Cartesian multipole field
    Component          Value
    ---------          -----
     (2,0,0)        1.00000E-11
     (0,2,0)        2.00000E-11
     (0,0,2)       -3.00000E-11
 Nucleus-field energy     =     0.0000000216 hartrees
 Requested basis set is def2-SVPD
 There are 103 shells and 239 basis functions
 A cutoff of  1.0D-14 yielded   4874 shell pairs
 There are     26266 function pairs (     29683 Cartesian)
 Requested basis set is def2-SVPD
 Compound shells will be simplified
 There are 103 shells and 239 basis functions
 A cutoff of  1.0D-14 yielded   4874 shell pairs
 There are     26266 function pairs (     29683 Cartesian)
 Smallest overlap matrix eigenvalue = 1.56E-04
 Attempting to make child job directory: /data/scratch/Me3SiH_ICN_vfb_backward20240611033149//Frg1/
 Failed to make child job directory:     /data/scratch/Me3SiH_ICN_vfb_backward20240611033149//Frg1/
 Attempting to make child job directory: /data/scratch/Me3SiH_ICN_vfb_backward20240611033149//Frg2/
 Failed to make child job directory:     /data/scratch/Me3SiH_ICN_vfb_backward20240611033149//Frg2/
 Creating input file /data/scratch/Me3SiH_ICN_vfb_backward20240611033149/Frg1.input
 using default PutDataFrgm: nothing
 calling putenv with: QCSCRATCH=/data/scratch/Me3SiH_ICN_vfb_backward20240611033149/ 
 Spawning Job For Fragment 0
 Done Job For Fragment 0
 calling putenv with: QCSCRATCH=/data/scratch 
 calling putenv with: QCTHREADS=16 
 Creating input file /data/scratch/Me3SiH_ICN_vfb_backward20240611033149/Frg2.input
 using default PutDataFrgm: nothing
 calling putenv with: QCSCRATCH=/data/scratch/Me3SiH_ICN_vfb_backward20240611033149/ 
 Spawning Job For Fragment 1
 Done Job For Fragment 1
 calling putenv with: QCSCRATCH=/data/scratch 
 calling putenv with: QCTHREADS=16 
 Time for running child jobs:  CPU 2.71 s  wall 22.33 s

 -----------------------------------------------------------------------
  General SCF calculation program by
  Eric Jon Sundstrom, Paul Horn, Yuezhi Mao, Dmitri Zuev, Alec White,
  David Stuck, Shaama M.S., Shane Yost, Joonho Lee, David Small,
  Daniel Levine, Susi Lehtola, Hugh Burton, Evgeny Epifanovsky,
  Bang C. Huynh
 -----------------------------------------------------------------------
Performing Restricted Closed Shell SCFMI
Doing General SCFMI
 Exchange:     0.1670 Hartree-Fock + 1.0000 wB97X-V + LR-HF
 Correlation:  1.0000 wB97X-V
 Using Euler-Maclaurin-Lebedev (75,302) quadrature formula
 Nonlocal Correlation:  VV10 with C = 0.0100 and b = 6.00 and scale = 1.00000
 Grid used for NLC:  SG-1 standard quadrature
performing fock build before subrot guess so that all methods have access
Printing subrot_rss_gen Method Specification:
Occupied Subspace Method is 0
Virtual Subspace Method is 0
Energy prior to optimization (guess energy) = -800.016910736592
Begin Timing: Total SCF Calculation
begin iterations for algorithm: DIIS         
the SCF tolerance is set to 1.00e-09
    1    -800.0169107366      1.79e-04     00000 
    2    -800.0183501678      6.65e-05     00000 
    3    -800.0185123355      3.30e-05     00000 
    4    -800.0185458098      1.97e-05     00000 
    5    -800.0185530049      1.13e-05     00000 
    6    -800.0185558588      3.80e-06     00000 
    7    -800.0185562478      1.27e-06     00000 
    8    -800.0185562852      2.60e-07     00000 
    9    -800.0185562873      9.92e-08     00000 
   10    -800.0185562875      4.24e-08     00000 
   11    -800.0185562876      1.53e-08     00000 
   12    -800.0185562876      4.46e-09     00000 
   13    -800.0185562876      1.29e-09     00000 
   14    -800.0185562876      4.11e-10     00000 Convergence criterion met
write pseudocanon occs and virts to disk
write pseudocanon orbital energies to disk
Timing for Total SCF: 37.00s (wall), 589.25s (cpu)
SCFMI Energy    -800.0185562876
<S^2>            0.00000
====================================================================
           Variational forward-backward (VFB) CT analysis           
 M. Loipersberger, Y. Mao and M. Head-Gordon, JCTC, 16, 1073 (2020) 
====================================================================
Calculating stabilization due to the backward (2->1) CT
Requested donor fragment: 2
updated OccSS dimension
        21
        19
updated VirtSS dimension
          143
          199
Energy prior to optimization (guess energy) = -800.018556287616
Begin Timing: Total SCF Calculation
begin iterations for algorithm: DIIS         
the SCF tolerance is set to 1.00e-09
    1    -800.0185562876      1.43e-04     00000 
    2    -800.0192384425      1.19e-05     00000 
    3    -800.0192499455      2.03e-06     00000 
    4    -800.0192501833      1.74e-06     00000 
    5    -800.0192502817      5.32e-07     00000 
    6    -800.0192502950      1.71e-07     00000 
    7    -800.0192502978      6.51e-08     00000 
    8    -800.0192502983      2.43e-08     00000 
    9    -800.0192502984      4.99e-09     00000 
   10    -800.0192502984      1.83e-09     00000 
   11    -800.0192502984      6.37e-10     00000 Convergence criterion met
write pseudocanon occs and virts to disk
write pseudocanon orbital energies to disk
Timing for Total SCF: 28.00s (wall), 456.94s (cpu)
Energy of the one-side CT state:     -800.0192502984
Stabilization due to one-side CT:    -1.8221 kJ/mol
<S^2>            0.00000
 Total energy in the final basis set =     -800.0192502984
    ==================================================
        The end of Object-Oriented SCFman: SCFMI      
    ==================================================
 
 --------------------------------------------------------------
 
                    Orbital Energies (a.u.)
 --------------------------------------------------------------
 
 Alpha MOs
 -- Occupied --
-66.1373 -14.4423 -10.3586 -10.2781 -10.2779 -10.2779  -7.0075  -5.3925
 -5.0453  -5.0243  -5.0243  -3.7469  -3.7458  -3.7457  -2.0980  -2.0910
 -2.0909  -2.0736  -2.0736  -1.0441  -0.8996  -0.8534  -0.8129  -0.8127
 -0.6198  -0.6010  -0.5414  -0.5295  -0.5290  -0.5094  -0.5094  -0.4983
 -0.4940  -0.4938  -0.4869  -0.4260  -0.4190  -0.4185  -0.3954  -0.3951
 -- Virtual --
  0.0170   0.0587   0.0676   0.0702   0.0758   0.0899   0.0922   0.1038
  0.1130   0.1142   0.1384   0.1437   0.1455   0.1496   0.1577   0.1673
  0.1679   0.1764   0.1859   0.1905   0.1954   0.2029   0.2056   0.2160
  0.2208   0.2252   0.2252   0.2309   0.2648   0.2769   0.2816   0.2839
  0.2932   0.3003   0.3054   0.3134   0.3224   0.3330   0.3390   0.3510
  0.3541   0.3637   0.3754   0.3825   0.3867   0.3897   0.4030   0.4032
  0.4057   0.4145   0.4166   0.4305   0.4321   0.4355   0.4419   0.4437
  0.4559   0.4609   0.4649   0.4664   0.4706   0.4713   0.4840   0.4942
  0.4953   0.5085   0.5213   0.5215   0.5238   0.5273   0.5343   0.5364
  0.5442   0.5458   0.5566   0.5752   0.5768   0.5946   0.5956   0.5971
  0.6037   0.6093   0.6220   0.6293   0.6302   0.6395   0.6454   0.6514
  0.6811   0.6867   0.6895   0.6982   0.6994   0.7223   0.7431   0.7656
  0.7709   0.7920   0.7993   0.8352   0.8559   0.8563   0.8755   0.8834
  0.9062   0.9101   0.9180   0.9497   0.9624   0.9807   0.9911   1.0149
  1.0353   1.0360   1.0478   1.0714   1.0783   1.0814   1.0902   1.0903
  1.1201   1.1569   1.1606   1.1657   1.1813   1.2184   1.2424   1.2630
  1.2639   1.2704   1.2912   1.3150   1.3311   1.3367   1.3564   1.3799
  1.3890   1.4279   1.4436   1.6408   1.6772   1.6953   1.7113   1.7460
  1.7647   1.7861   1.8019   1.8067   1.8161   1.8577   1.8599   1.8916
  1.8968   1.9121   1.9411   2.0141   2.0150   2.0151   2.0206   2.0497
  2.0559   2.0675   2.0906   2.1229   2.1354   2.1503   2.1927   2.2061
  2.2294   2.2377   2.3292   2.4472   2.4729   2.4736   2.5387   2.5400
  2.6030   2.6078   2.6079   2.6217   2.6245   2.6364   2.7277   2.8973
  2.9024   2.9061   2.9769   2.9784   3.1750   3.1809   3.1815   3.2123
  3.2202   3.2368   3.5692  18.9408  18.9903  19.8447  56.5948
 --------------------------------------------------------------
 
          Ground-State Mulliken Net Atomic Charges

     Atom                 Charge (a.u.)
  ----------------------------------------
      1 H                     0.329802
      2 Si                   -0.432332
      3 C                     0.089062
      4 H                    -0.018145
      5 H                    -0.027494
      6 H                    -0.018027
      7 C                     0.091716
      8 H                    -0.015932
      9 H                    -0.018907
     10 H                    -0.015933
     11 C                     0.089084
     12 H                    -0.018032
     13 H                    -0.018137
     14 H                    -0.027491
     15 I                     0.442401
     16 C                    -0.271624
     17 N                    -0.160012
  ----------------------------------------
  Sum of atomic charges =     0.000000

 -----------------------------------------------------------------
                    Cartesian Multipole Moments
 -----------------------------------------------------------------
    Charge (ESU x 10^10)
                -0.0000
    Dipole Moment (Debye)
         X      -4.8721      Y      -0.0019      Z       0.5427
       Tot       4.9023
    Quadrupole Moments (Debye-Ang)
        XX     -90.6297     XY      -0.0118     YY     -72.9890
        XZ       4.2494     YZ       0.0019     ZZ     -73.6415
    Octopole Moments (Debye-Ang^2)
       XXX     -81.0610    XXY      -0.0493    XYY      15.8856
       YYY       0.0100    XXZ      18.9565    XYZ       0.0066
       YYZ       8.4637    XZZ      13.7086    YZZ       0.0031
       ZZZ      14.8499
    Hexadecapole Moments (Debye-Ang^3)
      XXXX   -3922.2568   XXXY      -0.2430   XXYY    -611.1511
      XYYY      -0.0034   YYYY    -357.0420   XXXZ     147.6488
      XXYZ       0.0324   XYYZ      -2.3186   YYYZ       0.0101
      XXZZ    -614.6398   XYZZ      -0.0057   YYZZ    -112.2635
      XZZZ      26.1899   YZZZ       0.0105   ZZZZ    -309.9254
 -----------------------------------------------------------------
 Calculating analytic gradient of the SCF energy
 Gradient of SCF Energy
            1           2           3           4           5           6
    1   0.0006560   0.0000013   0.0000513  -0.0000095   0.0000038  -0.0000199
    2  -0.0000017   0.0000011  -0.0000107   0.0000076   0.0000050  -0.0000080
    3  -0.0005369   0.0003797   0.0000141  -0.0000204   0.0000105   0.0000066
            7           8           9          10          11          12
    1  -0.0000730   0.0000219  -0.0000282   0.0000221   0.0000517  -0.0000205
    2  -0.0000002  -0.0000215  -0.0000000   0.0000215   0.0000101   0.0000077
    3  -0.0001203   0.0000009   0.0000755   0.0000008   0.0000138   0.0000068
           13          14          15          16          17
    1  -0.0000096   0.0000042  -0.0014311   0.0010785  -0.0002989
    2  -0.0000077  -0.0000052   0.0000501  -0.0001233   0.0000754
    3  -0.0000194   0.0000106  -0.0005079   0.0017606  -0.0010751
 Max gradient component =       1.761E-03
 RMS gradient           =       4.139E-04
 Gradient time:  CPU 116.23 s  wall 7.33 s
 Geometry Optimization Parameters
   NAtoms,    NIC,     NZ,  NCons,   NDum,   NFix, NCnnct, MaxDiis
       17     109       0       0       0       0       0       0

 Cartesian Hessian Update
 Hessian updated using BFGS update


** GEOMETRY OPTIMIZATION IN DELOCALIZED INTERNAL COORDINATES **
   Searching for a Minimum

   Optimization Cycle:   3

                       Coordinates (Angstroms)
     ATOM                X               Y               Z
      1  H        -1.3730540679    0.0000019884    0.9706736247
      2  Si       -2.5475260301    0.0000139053    0.0288432624
      3  C        -2.4331067532   -1.5492980410   -1.0354161256
      4  H        -1.5023281742   -1.5637063407   -1.6256872363
      5  H        -2.4544001989   -2.4624675356   -0.4191449991
      6  H        -3.2765036289   -1.6030367758   -1.7434154589
      7  C        -4.1193367319   -0.0000041040    1.0628824577
      8  H        -4.1717885521   -0.8901392964    1.7099994433
      9  H        -5.0140579780    0.0000098134    0.4189021001
     10  H        -4.1717856532    0.8901059065    1.7100342394
     11  C        -2.4331110239    1.5493575360   -1.0353687077
     12  H        -3.2765061074    1.6031126955   -1.7433691133
     13  H        -1.5023299814    1.5637882691   -1.6256349174
     14  H        -2.4544112212    2.4625080787   -0.4190698437
     15  I         1.4495519012   -0.0001428635    0.2424153535
     16  C         3.3981014349   -0.0011834564   -0.2469566799
     17  N         4.5096417941    0.0011430547   -0.5705071077
   Point Group: c1    Number of degrees of freedom:    45


   Energy is   -800.019250298

 Hessian updated using BFGS update

 35 Hessian modes will be used to form the next step
  Hessian Eigenvalues:
     0.002000    0.003257    0.003490    0.003650    0.004366    0.034472
     0.045126    0.045244    0.054342    0.054350    0.054711    0.055210
     0.055211    0.146038    0.146833    0.149034    0.159861    0.160005
     0.162517    0.164003    0.199770    0.200000    0.205952    0.206786
     0.334123    0.334137    0.334146    0.334639    0.334673    0.334840
     0.334842    0.335100    0.335120    0.512059    1.292609

 Minimum search - taking simple RFO step
 Searching for Lamda that Minimizes Along All modes
 Value Taken    Lamda =  -0.00052786
 Step Taken.  Stepsize is  0.270979

                             Maximum     Tolerance    Cnvgd?
         Gradient           0.009701      0.000050      NO
         Displacement       0.146720      0.000050      NO
         Energy change     -0.000229      0.000000      NO


 New Cartesian Coordinates Obtained by Inverse Iteration

 Displacement from previous Coordinates is:  0.436543
 ----------------------------------------------------------------
             Standard Nuclear Orientation (Angstroms)
    I     Atom           X                Y                Z
 ----------------------------------------------------------------
    1      H      -1.4012563792    -0.0000878211     0.9845323376
    2      Si     -2.5699601613    -0.0000493810     0.0393929799
    3      C      -2.4507317345    -1.5487198437    -1.0267747219
    4      H      -1.5111723844    -1.5676563806    -1.6032602083
    5      H      -2.4856847722    -2.4630701310    -0.4127735660
    6      H      -3.2835671570    -1.5971832476    -1.7474513322
    7      C      -4.1521948931    -0.0000930825     1.0579323996
    8      H      -4.2117236034    -0.8900606956     1.7049093212
    9      H      -5.0404191100    -0.0000655961     0.4052436215
   10      H      -4.2117243249     0.8898194025     1.7049852490
   11      C      -2.4507363571     1.5487124993    -1.0266458009
   12      H      -3.2835698211     1.5972335115    -1.7473203906
   13      H      -1.5111773977     1.5677011181    -1.6031310956
   14      H      -2.4856944182     2.4630122664    -0.4125694850
   15      I       1.5568331805     0.0002832072     0.2205903052
   16      C       3.4905468940     0.0028819422    -0.3249441155
   17      N       4.6292814677    -0.0025949338    -0.5335352067
 ----------------------------------------------------------------
 Molecular Point Group                 C1    NOp =  1
 Largest Abelian Subgroup              C1    NOp =  1
 Nuclear Repulsion Energy =         425.51114056 hartrees
 There are       40 alpha and       40 beta electrons
 Applying Cartesian multipole field
    Component          Value
    ---------          -----
     (2,0,0)        1.00000E-11
     (0,2,0)        2.00000E-11
     (0,0,2)       -3.00000E-11
 Nucleus-field energy     =     0.0000000226 hartrees
 Requested basis set is def2-SVPD
 There are 103 shells and 239 basis functions
 A cutoff of  1.0D-14 yielded   4843 shell pairs
 There are     26079 function pairs (     29461 Cartesian)
 Requested basis set is def2-SVPD
 Compound shells will be simplified
 There are 103 shells and 239 basis functions
 A cutoff of  1.0D-14 yielded   4843 shell pairs
 There are     26079 function pairs (     29461 Cartesian)
 Smallest overlap matrix eigenvalue = 1.58E-04
 Attempting to make child job directory: /data/scratch/Me3SiH_ICN_vfb_backward20240611033149//Frg1/
 Failed to make child job directory:     /data/scratch/Me3SiH_ICN_vfb_backward20240611033149//Frg1/
 Attempting to make child job directory: /data/scratch/Me3SiH_ICN_vfb_backward20240611033149//Frg2/
 Failed to make child job directory:     /data/scratch/Me3SiH_ICN_vfb_backward20240611033149//Frg2/
 Creating input file /data/scratch/Me3SiH_ICN_vfb_backward20240611033149/Frg1.input
 using default PutDataFrgm: nothing
 calling putenv with: QCSCRATCH=/data/scratch/Me3SiH_ICN_vfb_backward20240611033149/ 
 Spawning Job For Fragment 0
 Done Job For Fragment 0
 calling putenv with: QCSCRATCH=/data/scratch 
 calling putenv with: QCTHREADS=16 
 Creating input file /data/scratch/Me3SiH_ICN_vfb_backward20240611033149/Frg2.input
 using default PutDataFrgm: nothing
 calling putenv with: QCSCRATCH=/data/scratch/Me3SiH_ICN_vfb_backward20240611033149/ 
 Spawning Job For Fragment 1
 Done Job For Fragment 1
 calling putenv with: QCSCRATCH=/data/scratch 
 calling putenv with: QCTHREADS=16 
 Time for running child jobs:  CPU 2.43 s  wall 22.29 s

 -----------------------------------------------------------------------
  General SCF calculation program by
  Eric Jon Sundstrom, Paul Horn, Yuezhi Mao, Dmitri Zuev, Alec White,
  David Stuck, Shaama M.S., Shane Yost, Joonho Lee, David Small,
  Daniel Levine, Susi Lehtola, Hugh Burton, Evgeny Epifanovsky,
  Bang C. Huynh
 -----------------------------------------------------------------------
Performing Restricted Closed Shell SCFMI
Doing General SCFMI
 Exchange:     0.1670 Hartree-Fock + 1.0000 wB97X-V + LR-HF
 Correlation:  1.0000 wB97X-V
 Using Euler-Maclaurin-Lebedev (75,302) quadrature formula
 Nonlocal Correlation:  VV10 with C = 0.0100 and b = 6.00 and scale = 1.00000
 Grid used for NLC:  SG-1 standard quadrature
performing fock build before subrot guess so that all methods have access
Printing subrot_rss_gen Method Specification:
Occupied Subspace Method is 0
Virtual Subspace Method is 0
Energy prior to optimization (guess energy) = -800.017178051662
Begin Timing: Total SCF Calculation
begin iterations for algorithm: DIIS         
the SCF tolerance is set to 1.00e-09
    1    -800.0171780517      1.55e-04     00000 
    2    -800.0182920943      5.73e-05     00000 
    3    -800.0184176859      2.68e-05     00000 
    4    -800.0184428064      1.43e-05     00000 
    5    -800.0184469200      9.20e-06     00000 
    6    -800.0184486989      2.83e-06     00000 
    7    -800.0184489248      8.81e-07     00000 
    8    -800.0184489466      1.57e-07     00000 
    9    -800.0184489476      5.55e-08     00000 
   10    -800.0184489477      2.12e-08     00000 
   11    -800.0184489477      7.45e-09     00000 
   12    -800.0184489477      2.47e-09     00000 
   13    -800.0184489477      7.49e-10     00000 Convergence criterion met
write pseudocanon occs and virts to disk
write pseudocanon orbital energies to disk
Timing for Total SCF: 34.00s (wall), 537.81s (cpu)
SCFMI Energy    -800.0184489477
<S^2>            0.00000
====================================================================
           Variational forward-backward (VFB) CT analysis           
 M. Loipersberger, Y. Mao and M. Head-Gordon, JCTC, 16, 1073 (2020) 
====================================================================
Calculating stabilization due to the backward (2->1) CT
Requested donor fragment: 2
updated OccSS dimension
        21
        19
updated VirtSS dimension
          143
          199
Energy prior to optimization (guess energy) = -800.018448947702
Begin Timing: Total SCF Calculation
begin iterations for algorithm: DIIS         
the SCF tolerance is set to 1.00e-09
    1    -800.0184489477      1.32e-04     00000 
    2    -800.0189827189      9.99e-06     00000 
    3    -800.0189907187      1.70e-06     00000 
    4    -800.0189908381      1.74e-06     00000 
    5    -800.0189909349      3.46e-07     00000 
    6    -800.0189909410      1.13e-07     00000 
    7    -800.0189909423      4.19e-08     00000 
    8    -800.0189909425      1.53e-08     00000 
    9    -800.0189909425      3.04e-09     00000 
   10    -800.0189909425      1.07e-09     00000 
   11    -800.0189909425      3.64e-10     00000 Convergence criterion met
write pseudocanon occs and virts to disk
write pseudocanon orbital energies to disk
Timing for Total SCF: 28.00s (wall), 453.19s (cpu)
Energy of the one-side CT state:     -800.0189909425
Stabilization due to one-side CT:    -1.4230 kJ/mol
<S^2>            0.00000
 Total energy in the final basis set =     -800.0189909425
    ==================================================
        The end of Object-Oriented SCFman: SCFMI      
    ==================================================
 
 --------------------------------------------------------------
 
                    Orbital Energies (a.u.)
 --------------------------------------------------------------
 
 Alpha MOs
 -- Occupied --
-66.1361 -14.4433 -10.3596 -10.2774 -10.2771 -10.2771  -7.0082  -5.3914
 -5.0460  -5.0251  -5.0251  -3.7457  -3.7447  -3.7446  -2.0987  -2.0917
 -2.0916  -2.0744  -2.0744  -1.0451  -0.9002  -0.8524  -0.8121  -0.8118
 -0.6175  -0.6025  -0.5407  -0.5285  -0.5282  -0.5086  -0.5084  -0.4975
 -0.4949  -0.4947  -0.4875  -0.4255  -0.4180  -0.4175  -0.3960  -0.3958
 -- Virtual --
  0.0132   0.0598   0.0692   0.0700   0.0750   0.0898   0.0919   0.1016
  0.1133   0.1139   0.1392   0.1435   0.1452   0.1496   0.1565   0.1674
  0.1687   0.1749   0.1866   0.1905   0.1960   0.2030   0.2055   0.2152
  0.2190   0.2239   0.2242   0.2303   0.2599   0.2755   0.2823   0.2842
  0.2920   0.2978   0.3061   0.3114   0.3238   0.3313   0.3393   0.3497
  0.3576   0.3584   0.3730   0.3834   0.3849   0.3976   0.4040   0.4042
  0.4064   0.4160   0.4173   0.4277   0.4319   0.4343   0.4440   0.4440
  0.4574   0.4623   0.4657   0.4673   0.4709   0.4725   0.4820   0.4901
  0.4929   0.5101   0.5181   0.5214   0.5222   0.5282   0.5341   0.5363
  0.5452   0.5463   0.5516   0.5703   0.5757   0.5944   0.5956   0.5983
  0.6041   0.6096   0.6201   0.6247   0.6296   0.6421   0.6435   0.6515
  0.6763   0.6849   0.6854   0.6899   0.6955   0.7222   0.7429   0.7620
  0.7673   0.7829   0.7942   0.8348   0.8498   0.8577   0.8758   0.8811
  0.9066   0.9076   0.9175   0.9515   0.9634   0.9776   0.9856   1.0092
  1.0346   1.0362   1.0402   1.0709   1.0751   1.0815   1.0895   1.0909
  1.1189   1.1555   1.1596   1.1663   1.1790   1.2099   1.2428   1.2555
  1.2633   1.2715   1.2914   1.3087   1.3288   1.3356   1.3600   1.3733
  1.3883   1.4241   1.4446   1.6402   1.6777   1.6956   1.7121   1.7467
  1.7654   1.7870   1.8030   1.8069   1.8165   1.8570   1.8592   1.8894
  1.8964   1.9127   1.9388   2.0145   2.0157   2.0158   2.0201   2.0495
  2.0551   2.0668   2.0903   2.1222   2.1356   2.1500   2.1929   2.2060
  2.2297   2.2373   2.3296   2.4482   2.4740   2.4750   2.5374   2.5385
  2.6033   2.6080   2.6086   2.6223   2.6248   2.6373   2.7163   2.8972
  2.9016   2.9062   2.9757   2.9831   3.1744   3.1809   3.1821   3.2131
  3.2214   3.2372   3.5681  18.9251  18.9769  19.8154  56.5550
 --------------------------------------------------------------
 
          Ground-State Mulliken Net Atomic Charges

     Atom                 Charge (a.u.)
  ----------------------------------------
      1 H                     0.362234
      2 Si                   -0.443665
      3 C                     0.086552
      4 H                    -0.018003
      5 H                    -0.027505
      6 H                    -0.019700
      7 C                     0.095719
      8 H                    -0.018143
      9 H                    -0.018778
     10 H                    -0.018141
     11 C                     0.086504
     12 H                    -0.019690
     13 H                    -0.018012
     14 H                    -0.027512
     15 I                     0.417119
     16 C                    -0.252613
     17 N                    -0.166366
  ----------------------------------------
  Sum of atomic charges =     0.000000

 -----------------------------------------------------------------
                    Cartesian Multipole Moments
 -----------------------------------------------------------------
    Charge (ESU x 10^10)
                -0.0000
    Dipole Moment (Debye)
         X      -4.8046      Y       0.0043      Z       0.4692
       Tot       4.8275
    Quadrupole Moments (Debye-Ang)
        XX     -91.6816     XY       0.0278     YY     -73.0599
        XZ       3.8057     YZ      -0.0047     ZZ     -73.5404
    Octopole Moments (Debye-Ang^2)
       XXX     -98.1089    XXY       0.1201    XYY      12.8266
       YYY      -0.0234    XXZ      18.1328    XYZ      -0.0162
       YYZ       9.1065    XZZ      11.1094    YZZ      -0.0066
       ZZZ      16.5797
    Hexadecapole Moments (Debye-Ang^3)
      XXXX   -4124.1856   XXXY       0.5860   XXYY    -634.4598
      XYYY      -0.0017   YYYY    -357.3851   XXXZ     149.1841
      XXYZ      -0.0740   XYYZ      -0.8753   YYYZ      -0.0189
      XXZZ    -635.5045   XYZZ       0.0061   YYZZ    -111.7599
      XZZZ      31.0157   YZZZ      -0.0195   ZZZZ    -306.3332
 -----------------------------------------------------------------
 Calculating analytic gradient of the SCF energy
 Gradient of SCF Energy
            1           2           3           4           5           6
    1  -0.0008704   0.0003719  -0.0001846   0.0000802   0.0000160   0.0000431
    2   0.0000032  -0.0000031   0.0000044  -0.0000348  -0.0000182  -0.0000750
    3  -0.0010494   0.0015445  -0.0000832  -0.0000683   0.0000060  -0.0000272
            7           8           9          10          11          12
    1  -0.0002002   0.0000078  -0.0000046   0.0000075  -0.0001852   0.0000445
    2   0.0000005  -0.0000526  -0.0000000   0.0000527  -0.0000032   0.0000755
    3  -0.0005249   0.0000712   0.0001861   0.0000714  -0.0000824  -0.0000275
           13          14          15          16          17
    1   0.0000804   0.0000152   0.0002909   0.0000574   0.0004298
    2   0.0000351   0.0000189  -0.0001172   0.0002938  -0.0001802
    3  -0.0000706   0.0000058   0.0018784  -0.0045878   0.0027580
 Max gradient component =       4.588E-03
 RMS gradient           =       8.571E-04
 Gradient time:  CPU 118.59 s  wall 7.50 s
 Geometry Optimization Parameters
   NAtoms,    NIC,     NZ,  NCons,   NDum,   NFix, NCnnct, MaxDiis
       17     109       0       0       0       0       0       0

 Cartesian Hessian Update
 Hessian updated using BFGS update


** GEOMETRY OPTIMIZATION IN DELOCALIZED INTERNAL COORDINATES **
   Searching for a Minimum

   Optimization Cycle:   4

                       Coordinates (Angstroms)
     ATOM                X               Y               Z
      1  H        -1.4012563792   -0.0000878211    0.9845323376
      2  Si       -2.5699601613   -0.0000493810    0.0393929799
      3  C        -2.4507317345   -1.5487198437   -1.0267747219
      4  H        -1.5111723844   -1.5676563806   -1.6032602083
      5  H        -2.4856847722   -2.4630701310   -0.4127735660
      6  H        -3.2835671570   -1.5971832476   -1.7474513322
      7  C        -4.1521948931   -0.0000930825    1.0579323996
      8  H        -4.2117236034   -0.8900606956    1.7049093212
      9  H        -5.0404191100   -0.0000655961    0.4052436215
     10  H        -4.2117243249    0.8898194025    1.7049852490
     11  C        -2.4507363571    1.5487124993   -1.0266458009
     12  H        -3.2835698211    1.5972335115   -1.7473203906
     13  H        -1.5111773977    1.5677011181   -1.6031310956
     14  H        -2.4856944182    2.4630122664   -0.4125694850
     15  I         1.5568331805    0.0002832072    0.2205903052
     16  C         3.4905468940    0.0028819422   -0.3249441155
     17  N         4.6292814677   -0.0025949338   -0.5335352067
   Point Group: c1    Number of degrees of freedom:    45


   Energy is   -800.018990943

 Hessian updated using BFGS update

 37 Hessian modes will be used to form the next step
  Hessian Eigenvalues:
     0.002000    0.003421    0.003650    0.006268    0.034492    0.045158
     0.045244    0.054346    0.054350    0.054714    0.055210    0.055211
     0.146038    0.146854    0.150826    0.159896    0.160000    0.160059
     0.162156    0.164673    0.199437    0.200000    0.200001    0.206057
     0.206079    0.206791    0.334135    0.334137    0.334156    0.334673
     0.334675    0.334842    0.334842    0.335120    0.335129    1.046842
     1.292791

 Minimum search - taking simple RFO step
 Searching for Lamda that Minimizes Along All modes
 Value Taken    Lamda =  -0.00066903
 Step Taken.  Stepsize is  0.127770

                             Maximum     Tolerance    Cnvgd?
         Gradient           0.022763      0.000050      NO
         Displacement       0.069513      0.000050      NO
         Energy change      0.000259      0.000000      NO


 New Cartesian Coordinates Obtained by Inverse Iteration

 Displacement from previous Coordinates is:  0.240496
 ----------------------------------------------------------------
             Standard Nuclear Orientation (Angstroms)
    I     Atom           X                Y                Z
 ----------------------------------------------------------------
    1      H      -1.3908179729    -0.0000849482     0.9863067044
    2      Si     -2.5591440005    -0.0000261349     0.0366014048
    3      C      -2.4380583330    -1.5489586766    -1.0278591161
    4      H      -1.4994516683    -1.5667642303    -1.6055843377
    5      H      -2.4712042172    -2.4627920765    -0.4130682588
    6      H      -3.2720412264    -1.5985116944    -1.7471738789
    7      C      -4.1396932857    -0.0000111843     1.0573178939
    8      H      -4.1985568778    -0.8900866025     1.7039649530
    9      H      -5.0281432720     0.0000327658     0.4046717546
   10      H      -4.1985065763     0.8900299936     1.7040166476
   11      C      -2.4379757213     1.5489567879    -1.0277768136
   12      H      -3.2719542616     1.5985913079    -1.7470910184
   13      H      -1.4993668703     1.5667443674    -1.6054991161
   14      H      -2.4710756473     2.4627593229    -0.4129376506
   15      I       1.5018762758    -0.0000899701     0.2322590340
   16      C       3.4406247204     0.0000670644    -0.2827580901
   17      N       4.5605379622     0.0002067420    -0.5762098205
 ----------------------------------------------------------------
 Molecular Point Group                 C1    NOp =  1
 Largest Abelian Subgroup              C1    NOp =  1
 Nuclear Repulsion Energy =         427.70611340 hartrees
 There are       40 alpha and       40 beta electrons
 Applying Cartesian multipole field
    Component          Value
    ---------          -----
     (2,0,0)        1.00000E-11
     (0,2,0)        2.00000E-11
     (0,0,2)       -3.00000E-11
 Nucleus-field energy     =     0.0000000221 hartrees
 Requested basis set is def2-SVPD
 There are 103 shells and 239 basis functions
 A cutoff of  1.0D-14 yielded   4861 shell pairs
 There are     26189 function pairs (     29590 Cartesian)
 Requested basis set is def2-SVPD
 Compound shells will be simplified
 There are 103 shells and 239 basis functions
 A cutoff of  1.0D-14 yielded   4861 shell pairs
 There are     26189 function pairs (     29590 Cartesian)
 Smallest overlap matrix eigenvalue = 1.57E-04
 Attempting to make child job directory: /data/scratch/Me3SiH_ICN_vfb_backward20240611033149//Frg1/
 Failed to make child job directory:     /data/scratch/Me3SiH_ICN_vfb_backward20240611033149//Frg1/
 Attempting to make child job directory: /data/scratch/Me3SiH_ICN_vfb_backward20240611033149//Frg2/
 Failed to make child job directory:     /data/scratch/Me3SiH_ICN_vfb_backward20240611033149//Frg2/
 Creating input file /data/scratch/Me3SiH_ICN_vfb_backward20240611033149/Frg1.input
 using default PutDataFrgm: nothing
 calling putenv with: QCSCRATCH=/data/scratch/Me3SiH_ICN_vfb_backward20240611033149/ 
 Spawning Job For Fragment 0
 Done Job For Fragment 0
 calling putenv with: QCSCRATCH=/data/scratch 
 calling putenv with: QCTHREADS=16 
 Creating input file /data/scratch/Me3SiH_ICN_vfb_backward20240611033149/Frg2.input
 using default PutDataFrgm: nothing
 calling putenv with: QCSCRATCH=/data/scratch/Me3SiH_ICN_vfb_backward20240611033149/ 
 Spawning Job For Fragment 1
 Done Job For Fragment 1
 calling putenv with: QCSCRATCH=/data/scratch 
 calling putenv with: QCTHREADS=16 
 Time for running child jobs:  CPU 2.38 s  wall 22.26 s

 -----------------------------------------------------------------------
  General SCF calculation program by
  Eric Jon Sundstrom, Paul Horn, Yuezhi Mao, Dmitri Zuev, Alec White,
  David Stuck, Shaama M.S., Shane Yost, Joonho Lee, David Small,
  Daniel Levine, Susi Lehtola, Hugh Burton, Evgeny Epifanovsky,
  Bang C. Huynh
 -----------------------------------------------------------------------
Performing Restricted Closed Shell SCFMI
Doing General SCFMI
 Exchange:     0.1670 Hartree-Fock + 1.0000 wB97X-V + LR-HF
 Correlation:  1.0000 wB97X-V
 Using Euler-Maclaurin-Lebedev (75,302) quadrature formula
 Nonlocal Correlation:  VV10 with C = 0.0100 and b = 6.00 and scale = 1.00000
 Grid used for NLC:  SG-1 standard quadrature
performing fock build before subrot guess so that all methods have access
Printing subrot_rss_gen Method Specification:
Occupied Subspace Method is 0
Virtual Subspace Method is 0
Energy prior to optimization (guess energy) = -800.017301064980
Begin Timing: Total SCF Calculation
begin iterations for algorithm: DIIS         
the SCF tolerance is set to 1.00e-09
    1    -800.0173010650      1.66e-04     00000 
    2    -800.0185625510      6.18e-05     00000 
    3    -800.0187044998      2.99e-05     00000 
    4    -800.0187334716      1.71e-05     00000 
    5    -800.0187389907      1.03e-05     00000 
    6    -800.0187412708      3.27e-06     00000 
    7    -800.0187415651      1.06e-06     00000 
    8    -800.0187415933      2.00e-07     00000 
    9    -800.0187415947      7.32e-08     00000 
   10    -800.0187415948      2.97e-08     00000 
   11    -800.0187415949      1.06e-08     00000 
   12    -800.0187415949      3.29e-09     00000 
   13    -800.0187415949      9.64e-10     00000 Convergence criterion met
write pseudocanon occs and virts to disk
write pseudocanon orbital energies to disk
Timing for Total SCF: 33.00s (wall), 537.59s (cpu)
SCFMI Energy    -800.0187415949
<S^2>            0.00000
====================================================================
           Variational forward-backward (VFB) CT analysis           
 M. Loipersberger, Y. Mao and M. Head-Gordon, JCTC, 16, 1073 (2020) 
====================================================================
Calculating stabilization due to the backward (2->1) CT
Requested donor fragment: 2
updated OccSS dimension
        21
        19
updated VirtSS dimension
          143
          199
Energy prior to optimization (guess energy) = -800.018741594874
Begin Timing: Total SCF Calculation
begin iterations for algorithm: DIIS         
the SCF tolerance is set to 1.00e-09
    1    -800.0187415949      1.37e-04     00000 
    2    -800.0193372022      1.08e-05     00000 
    3    -800.0193465489      1.83e-06     00000 
    4    -800.0193467148      1.73e-06     00000 
    5    -800.0193468105      4.22e-07     00000 
    6    -800.0193468193      1.38e-07     00000 
    7    -800.0193468212      5.16e-08     00000 
    8    -800.0193468215      1.91e-08     00000 
    9    -800.0193468215      3.82e-09     00000 
   10    -800.0193468215      1.38e-09     00000 
   11    -800.0193468215      4.74e-10     00000 Convergence criterion met
write pseudocanon occs and virts to disk
write pseudocanon orbital energies to disk
Timing for Total SCF: 29.00s (wall), 451.46s (cpu)
Energy of the one-side CT state:     -800.0193468215
Stabilization due to one-side CT:    -1.5890 kJ/mol
<S^2>            0.00000
 Total energy in the final basis set =     -800.0193468215
    ==================================================
        The end of Object-Oriented SCFman: SCFMI      
    ==================================================
 
 --------------------------------------------------------------
 
                    Orbital Energies (a.u.)
 --------------------------------------------------------------
 
 Alpha MOs
 -- Occupied --
-66.1367 -14.4427 -10.3591 -10.2777 -10.2776 -10.2775  -7.0079  -5.3920
 -5.0456  -5.0248  -5.0247  -3.7463  -3.7452  -3.7452  -2.0984  -2.0913
 -2.0913  -2.0741  -2.0740  -1.0446  -0.9004  -0.8530  -0.8125  -0.8123
 -0.6186  -0.6019  -0.5411  -0.5291  -0.5286  -0.5090  -0.5090  -0.4980
 -0.4946  -0.4944  -0.4872  -0.4255  -0.4185  -0.4181  -0.3957  -0.3954
 -- Virtual --
  0.0165   0.0592   0.0681   0.0700   0.0755   0.0897   0.0921   0.1028
  0.1132   0.1138   0.1386   0.1438   0.1452   0.1495   0.1572   0.1673
  0.1684   0.1756   0.1860   0.1907   0.1959   0.2030   0.2054   0.2157
  0.2202   0.2243   0.2247   0.2306   0.2623   0.2763   0.2819   0.2841
  0.2929   0.2991   0.3057   0.3127   0.3229   0.3326   0.3389   0.3502
  0.3558   0.3620   0.3748   0.3830   0.3857   0.3934   0.4032   0.4038
  0.4054   0.4152   0.4169   0.4294   0.4322   0.4349   0.4426   0.4440
  0.4552   0.4618   0.4660   0.4661   0.4700   0.4719   0.4829   0.4931
  0.4935   0.5089   0.5212   0.5218   0.5220   0.5277   0.5345   0.5362
  0.5449   0.5460   0.5544   0.5731   0.5758   0.5946   0.5952   0.5977
  0.6039   0.6094   0.6218   0.6274   0.6304   0.6406   0.6445   0.6513
  0.6795   0.6855   0.6884   0.6936   0.6978   0.7224   0.7430   0.7667
  0.7669   0.7905   0.7934   0.8349   0.8531   0.8561   0.8756   0.8822
  0.9067   0.9088   0.9172   0.9506   0.9628   0.9801   0.9878   1.0128
  1.0349   1.0360   1.0439   1.0714   1.0767   1.0814   1.0899   1.0907
  1.1194   1.1564   1.1602   1.1661   1.1800   1.2142   1.2426   1.2600
  1.2633   1.2711   1.2910   1.3139   1.3362   1.3394   1.3494   1.3750
  1.3884   1.4255   1.4431   1.6405   1.6774   1.6954   1.7119   1.7462
  1.7651   1.7866   1.8026   1.8066   1.8163   1.8571   1.8594   1.8904
  1.8950   1.9124   1.9397   2.0142   2.0153   2.0154   2.0204   2.0495
  2.0555   2.0673   2.0905   2.1226   2.1356   2.1504   2.1930   2.2061
  2.2296   2.2375   2.3285   2.4473   2.4734   2.4742   2.5383   2.5394
  2.6032   2.6078   2.6084   2.6220   2.6246   2.6368   2.7287   2.8973
  2.9021   2.9062   2.9767   2.9779   3.1748   3.1808   3.1817   3.2127
  3.2208   3.2370   3.5683  18.9332  18.9842  19.8387  56.5762
 --------------------------------------------------------------
 
[...]
 IR Intens:        6.838                  6.910                 19.095
 Raman Active:       YES                    YES                    YES
               X      Y      Z        X      Y      Z        X      Y      Z
 H         -0.000  0.300  0.000   -0.210 -0.000  0.228   -0.000 -0.317 -0.000
 Si        -0.000  0.153  0.000   -0.106 -0.000  0.111   -0.000 -0.064  0.000
 C          0.044 -0.157 -0.146   -0.026 -0.133 -0.023    0.077  0.041  0.014
 H          0.007 -0.386 -0.214   -0.001  0.124  0.002   -0.033 -0.235 -0.163
 H         -0.026 -0.107 -0.066    0.090 -0.319 -0.288   -0.129  0.103  0.084
 H         -0.001 -0.245 -0.105    0.071 -0.060 -0.132   -0.121  0.215  0.201
 C          0.000  0.078  0.000    0.212  0.000 -0.128    0.000  0.115  0.000
 H          0.263 -0.079 -0.169    0.329 -0.012 -0.136    0.359 -0.112 -0.239
 H          0.000 -0.110 -0.000    0.212  0.000 -0.115    0.000 -0.180 -0.000
 H         -0.263 -0.079  0.169    0.329  0.012 -0.136   -0.359 -0.112  0.239
 C         -0.044 -0.157  0.146   -0.026  0.133 -0.023   -0.077  0.041 -0.014
 H          0.001 -0.245  0.105    0.071  0.060 -0.132    0.121  0.215 -0.201
 H         -0.007 -0.386  0.214   -0.001 -0.124  0.002    0.033 -0.235  0.163
 H          0.026 -0.107  0.066    0.090  0.320 -0.288    0.129  0.103 -0.084
 I          0.000  0.000  0.000    0.000  0.000 -0.000    0.000  0.000  0.000
 C          0.000 -0.000 -0.000    0.001 -0.000  0.000    0.000 -0.001 -0.000
 N          0.000  0.000 -0.000    0.001  0.000 -0.000    0.000  0.000 -0.000
 TransDip  -0.000  0.084  0.000   -0.052 -0.000  0.066    0.000 -0.140  0.000

 Mode:                22                     23                     24
 Frequency:       842.42                 859.91                 915.99
 Force Cnst:      0.6200                 0.6879                 0.6499
 Red. Mass:       1.4827                 1.5790                 1.3146
 IR Active:          YES                    YES                    YES
 IR Intens:       25.668                 91.818                136.842
 Raman Active:       YES                    YES                    YES
               X      Y      Z        X      Y      Z        X      Y      Z
 H         -0.188  0.000  0.212    0.044 -0.000  0.058   -0.000  0.813  0.000
 Si        -0.046  0.000  0.057    0.074 -0.000  0.054    0.000 -0.081 -0.000
 C          0.033  0.044 -0.098   -0.085  0.014 -0.054   -0.035  0.042 -0.040
 H          0.029 -0.360 -0.077    0.073  0.131  0.224    0.045  0.017  0.119
 H         -0.084  0.305  0.301    0.134  0.116  0.135    0.021  0.182  0.181
 H         -0.052 -0.250  0.010    0.113 -0.371 -0.215    0.014 -0.188 -0.065
 C          0.064 -0.000  0.026   -0.064  0.000 -0.080   -0.000  0.051  0.000
 H         -0.065 -0.021 -0.031    0.224  0.044  0.040    0.137 -0.050 -0.108
 H          0.238  0.000 -0.182   -0.359 -0.000  0.284    0.000 -0.092 -0.000
 H         -0.065  0.021 -0.031    0.224 -0.044  0.040   -0.137 -0.050  0.108
 C          0.033 -0.044 -0.098   -0.085 -0.014 -0.054    0.035  0.042  0.040
 H         -0.052  0.250  0.010    0.113  0.371 -0.215   -0.014 -0.188  0.064
 H          0.029  0.360 -0.077    0.073 -0.131  0.224   -0.045  0.017 -0.119
 H         -0.084 -0.305  0.301    0.134 -0.116  0.135   -0.021  0.182 -0.181
 I          0.000 -0.000  0.000   -0.001 -0.000  0.000   -0.000 -0.000 -0.000
 C          0.000 -0.000 -0.000    0.001 -0.000  0.000    0.000  0.002  0.000
 N          0.001 -0.000 -0.000    0.001  0.000 -0.000    0.000 -0.000 -0.000
 TransDip  -0.100  0.000  0.128    0.273 -0.000  0.140    0.000 -0.375 -0.000

 Mode:                25                     26                     27
 Frequency:       936.54                1274.11                1274.48
 Force Cnst:      0.6462                 1.2288                 1.2270
 Red. Mass:       1.2505                 1.2847                 1.2821
 IR Active:          YES                    YES                    YES
 IR Intens:      184.983                 40.210                 44.285
 Raman Active:       YES                    YES                    YES
               X      Y      Z        X      Y      Z        X      Y      Z
 H         -0.580 -0.000  0.630   -0.014 -0.000  0.016    0.000 -0.021 -0.000
 Si         0.044  0.000 -0.055    0.011  0.000 -0.011   -0.000  0.016  0.000
 C         -0.046 -0.004  0.011   -0.009  0.049  0.036    0.010 -0.092 -0.060
 H          0.010  0.173  0.101   -0.072 -0.189 -0.087    0.120  0.354  0.149
 H          0.075 -0.026 -0.016    0.038 -0.112 -0.191   -0.050  0.196  0.347
 H          0.058 -0.042 -0.087    0.104 -0.187 -0.072   -0.167  0.355  0.106
 C          0.024 -0.000  0.068   -0.114 -0.000  0.063    0.000 -0.004 -0.000
 H         -0.198 -0.019  0.005    0.422 -0.177 -0.114    0.000  0.003  0.009
 H          0.186  0.000 -0.137    0.282  0.000 -0.386   -0.000  0.017  0.001
 H         -0.198  0.019  0.005    0.422  0.177 -0.114   -0.002  0.002 -0.008
 C         -0.046  0.004  0.011   -0.009 -0.049  0.036   -0.010 -0.092  0.060
 H          0.058  0.042 -0.087    0.105  0.188 -0.072    0.167  0.354 -0.106
 H          0.010 -0.173  0.101   -0.073  0.190 -0.087   -0.120  0.354 -0.148
 H          0.075  0.026 -0.016    0.038  0.113 -0.192    0.050  0.196 -0.346
 I          0.000  0.000 -0.000    0.000 -0.000  0.000   -0.000 -0.000 -0.000
 C          0.001 -0.000  0.002   -0.000  0.000 -0.000    0.000  0.000  0.000
 N          0.001  0.000 -0.001    0.000 -0.000  0.000   -0.000 -0.000 -0.000
 TransDip   0.335  0.000 -0.279    0.130  0.000 -0.156   -0.000  0.213  0.000

 Mode:                28                     29                     30
 Frequency:      1281.46                1424.88                1426.65
 Force Cnst:      1.2067                 1.2582                 1.2585
 Red. Mass:       1.2472                 1.0519                 1.0495
 IR Active:          YES                    YES                    YES
 IR Intens:       11.289                  0.118                  0.155
 Raman Active:       YES                    YES                    YES
               X      Y      Z        X      Y      Z        X      Y      Z
 H          0.014 -0.000  0.009    0.000 -0.001 -0.000    0.000 -0.010 -0.000
 Si         0.003  0.000  0.003   -0.000 -0.000  0.000    0.000 -0.000 -0.000
 C          0.007 -0.071 -0.049    0.020  0.018 -0.024   -0.039  0.007 -0.015
 H          0.104  0.288  0.134    0.152  0.040  0.238    0.085 -0.327  0.215
 H         -0.037  0.167  0.289   -0.160 -0.084 -0.186    0.485 -0.024  0.006
 H         -0.144  0.290  0.093   -0.248 -0.196  0.264   -0.042  0.266 -0.016
 C         -0.073 -0.000  0.038    0.000 -0.038  0.000    0.000 -0.014  0.000
 H          0.288 -0.113 -0.072    0.257  0.032  0.127    0.104  0.013  0.049
 H          0.187  0.000 -0.258   -0.000  0.439  0.000   -0.000  0.175  0.000
 H          0.288  0.113 -0.072   -0.257  0.032 -0.127   -0.104  0.013 -0.049
 C          0.007  0.071 -0.049   -0.020  0.018  0.024    0.039  0.007  0.015
 H         -0.144 -0.290  0.092    0.248 -0.196 -0.264    0.041  0.266  0.016
 H          0.104 -0.288  0.134   -0.152  0.040 -0.238   -0.085 -0.327 -0.215
 H         -0.037 -0.167  0.289    0.160 -0.084  0.186   -0.485 -0.024 -0.006
 I         -0.000  0.000 -0.000   -0.000 -0.000 -0.000   -0.000 -0.000 -0.000
 C          0.000  0.000  0.000    0.000  0.000  0.000    0.000  0.000  0.000
 N         -0.000 -0.000 -0.000   -0.000 -0.000 -0.000   -0.000 -0.000 -0.000
 TransDip   0.082  0.000  0.070    0.000  0.011 -0.000    0.000  0.013  0.000

 Mode:                31                     32                     33
 Frequency:      1427.12                1436.86                1436.88
 Force Cnst:      1.2592                 1.2722                 1.2723
 Red. Mass:       1.0493                 1.0459                 1.0459
 IR Active:          YES                    YES                    YES
 IR Intens:        0.386                  2.467                  3.193
 Raman Active:       YES                    YES                    YES
               X      Y      Z        X      Y      Z        X      Y      Z
 H         -0.007 -0.000  0.008   -0.000  0.030  0.000    0.020  0.001 -0.023
 Si        -0.000  0.000  0.000    0.000 -0.008 -0.000   -0.005 -0.000  0.005
 C          0.011 -0.014  0.022   -0.002 -0.013  0.022   -0.030 -0.018  0.019
 H         -0.136  0.159 -0.262   -0.145  0.064 -0.255   -0.143 -0.141 -0.207
 H         -0.182  0.065  0.107   -0.033  0.074  0.139    0.310  0.095  0.217
 H          0.168 -0.036 -0.145    0.205  0.056 -0.197    0.258  0.294 -0.293
 C         -0.022 -0.000 -0.042   -0.000 -0.044 -0.000    0.009 -0.001  0.012
 H          0.073  0.296  0.394    0.336  0.041  0.158   -0.023 -0.095 -0.126
 H          0.151  0.000 -0.229    0.001  0.550 -0.002   -0.056  0.011  0.085
 H          0.073 -0.296  0.394   -0.335  0.037 -0.153   -0.036  0.096 -0.132
 C          0.011  0.014  0.022    0.003 -0.014 -0.023   -0.030  0.017  0.019
 H          0.168  0.036 -0.145   -0.215  0.067  0.209    0.250 -0.291 -0.285
 H         -0.136 -0.160 -0.262    0.150  0.058  0.263   -0.138  0.144 -0.197
 H         -0.182 -0.065  0.107    0.020  0.078 -0.148    0.311 -0.092  0.212
 I          0.000 -0.000  0.000   -0.000  0.000 -0.000    0.000  0.000  0.000
 C         -0.000  0.000 -0.000    0.000 -0.000  0.000   -0.000 -0.000 -0.000
 N          0.000 -0.000  0.000   -0.000  0.000 -0.000    0.000  0.000  0.000
 TransDip  -0.020  0.000  0.000   -0.000  0.050  0.001    0.013  0.001 -0.056

 Mode:                34                     35                     36
 Frequency:      1443.75                2175.50                2365.66
 Force Cnst:      1.2819                 2.8957                42.0863
 Red. Mass:       1.0438                 1.0384                12.7639
 IR Active:          YES                    YES                    YES
 IR Intens:       10.601                265.796                  9.508
 Raman Active:       YES                    YES                    YES
               X      Y      Z        X      Y      Z        X      Y      Z
 H         -0.007  0.000 -0.003    0.738 -0.000  0.674   -0.019  0.000 -0.014
 Si        -0.007  0.000 -0.007   -0.025  0.000 -0.023    0.000 -0.000  0.001
 C         -0.025  0.010 -0.016   -0.001  0.000 -0.001    0.000  0.000  0.000
 H          0.109 -0.266  0.239   -0.003 -0.002  0.000   -0.001 -0.001 -0.001
 H          0.358 -0.050 -0.054    0.001  0.001 -0.004   -0.000 -0.000  0.000
 H         -0.104  0.175  0.064   -0.000 -0.007 -0.006    0.000  0.000 -0.001
 C         -0.015  0.000 -0.030   -0.001  0.000 -0.001    0.000 -0.000 -0.000
 H          0.048  0.235  0.312   -0.001  0.003 -0.001    0.000 -0.000  0.000
 H          0.127  0.000 -0.186   -0.009 -0.000  0.004   -0.000 -0.000  0.000
 H          0.048 -0.235  0.312   -0.001 -0.003 -0.001    0.000  0.000  0.000
 C         -0.025 -0.010 -0.016   -0.001 -0.000 -0.001    0.000 -0.000  0.000
 H         -0.104 -0.175  0.064   -0.000  0.007 -0.006    0.000 -0.000 -0.001
 H          0.109  0.266  0.239   -0.003  0.002  0.000   -0.001  0.001 -0.001
 H          0.358  0.050 -0.054    0.001 -0.001 -0.004   -0.000  0.000  0.000
 I          0.000 -0.000 -0.000   -0.000 -0.000 -0.000   -0.006 -0.000  0.002
 C         -0.000  0.000 -0.000    0.001  0.000 -0.000    0.753  0.000 -0.224
 N         -0.000 -0.000  0.000   -0.002 -0.000  0.000   -0.593 -0.000  0.176
 TransDip   0.076 -0.000  0.071   -0.453  0.000 -0.259    0.096  0.000 -0.025

 Mode:                37                     38                     39
 Frequency:      3047.15                3047.39                3049.28
 Force Cnst:      5.6737                 5.6753                 5.6813
 Red. Mass:       1.0371                 1.0372                 1.0371
 IR Active:          YES                    YES                    YES
 IR Intens:        2.020                  3.410                  3.702
 Raman Active:       YES                    YES                    YES
               X      Y      Z        X      Y      Z        X      Y      Z
 H          0.000 -0.000  0.001    0.000  0.001  0.000   -0.001 -0.000  0.000
 Si         0.000  0.000 -0.001    0.000 -0.001 -0.000    0.001  0.000 -0.001
 C         -0.003  0.029  0.022   -0.003  0.029  0.022    0.000  0.002  0.002
 H          0.359  0.001 -0.186    0.362  0.001 -0.188    0.024  0.001 -0.012
 H         -0.027 -0.324  0.226   -0.027 -0.321  0.226   -0.002 -0.026  0.018
 H         -0.302 -0.012 -0.290   -0.304 -0.012 -0.292   -0.024 -0.001 -0.023
 C          0.003  0.000 -0.002    0.000 -0.000 -0.000   -0.047 -0.000  0.021
 H         -0.004 -0.035  0.025    0.001  0.003 -0.003    0.041  0.455 -0.322
 H         -0.033  0.000 -0.029   -0.000 -0.000 -0.000    0.455 -0.000  0.401
 H         -0.004  0.035  0.025   -0.001  0.003  0.003    0.041 -0.455 -0.322
 C         -0.003 -0.029  0.022    0.003  0.029 -0.022    0.000 -0.002  0.002
 H         -0.302  0.012 -0.290    0.304 -0.012  0.292   -0.024  0.001 -0.023
 H          0.359 -0.000 -0.186   -0.362  0.001  0.188    0.024 -0.001 -0.012
 H         -0.027  0.325  0.227    0.027 -0.320 -0.225   -0.002  0.026  0.018
 I         -0.000 -0.000  0.000   -0.000  0.000 -0.000    0.000 -0.000  0.000
 C          0.000  0.000 -0.000    0.000 -0.000 -0.000    0.000  0.000 -0.000
 N         -0.000 -0.000  0.000   -0.000  0.000  0.000   -0.000  0.000  0.000
 TransDip   0.000 -0.000  0.046   -0.000  0.059  0.000   -0.056 -0.000  0.025

 Mode:                40                     41                     42
 Frequency:      3138.64                3139.66                3141.68
 Force Cnst:      6.3940                 6.3961                 6.4053
 Red. Mass:       1.1016                 1.1013                 1.1015
 IR Active:          YES                    YES                    YES
 IR Intens:        0.027                 15.245                 11.250
 Raman Active:       YES                    YES                    YES
               X      Y      Z        X      Y      Z        X      Y      Z
 H          0.000 -0.002  0.000    0.003 -0.000  0.004    0.005 -0.000  0.003
 Si        -0.000  0.000 -0.000   -0.001  0.000 -0.000   -0.001  0.000 -0.000
 C          0.062 -0.006  0.019   -0.058  0.009 -0.022   -0.023 -0.007  0.007
 H         -0.387  0.006  0.215    0.346 -0.006 -0.193    0.191 -0.005 -0.102
 H          0.018  0.096 -0.062   -0.020 -0.129  0.083    0.003  0.087 -0.058
 H         -0.378 -0.025 -0.377    0.372  0.026  0.370    0.078  0.005  0.082
 C          0.000  0.002  0.000    0.012 -0.000  0.023   -0.039  0.000 -0.076
 H         -0.001 -0.012  0.009    0.014  0.101 -0.069   -0.045 -0.326  0.222
 H         -0.000  0.001 -0.000   -0.168  0.000 -0.141    0.562 -0.000  0.468
 H          0.001 -0.012 -0.009    0.014 -0.101 -0.069   -0.045  0.326  0.222
 C         -0.062 -0.006 -0.019   -0.058 -0.009 -0.022   -0.023  0.007  0.007
 H          0.378 -0.025  0.377    0.372 -0.026  0.370    0.078 -0.005  0.082
 H          0.387  0.006 -0.215    0.345  0.006 -0.193    0.191  0.005 -0.102
 H         -0.018  0.096  0.062   -0.020  0.128  0.083    0.003 -0.087 -0.058
 I         -0.000 -0.000 -0.000   -0.000  0.000  0.000   -0.000 -0.000  0.000
 C          0.000  0.000 -0.000    0.000 -0.000 -0.000    0.000  0.000 -0.000
 N         -0.000 -0.000  0.000   -0.000 -0.000  0.000   -0.000 -0.000  0.000
 TransDip  -0.000 -0.005 -0.000   -0.124  0.000 -0.018   -0.088  0.000 -0.062

 Mode:                43                     44                     45
 Frequency:      3143.27                3143.65                3146.83
 Force Cnst:      6.4134                 6.4142                 6.4284
 Red. Mass:       1.1017                 1.1016                 1.1018
 IR Active:          YES                    YES                    YES
 IR Intens:        3.767                 11.971                  8.589
 Raman Active:       YES                    YES                    YES
               X      Y      Z        X      Y      Z        X      Y      Z
 H         -0.000  0.000 -0.000    0.001 -0.000  0.003   -0.000  0.001  0.000
 Si        -0.000 -0.000  0.000    0.000 -0.000 -0.001    0.000 -0.001 -0.000
 C         -0.019 -0.037  0.050    0.019  0.036 -0.048   -0.001 -0.004  0.006
 H          0.325 -0.012 -0.166   -0.320  0.013  0.164    0.025 -0.001 -0.013
 H          0.035  0.476 -0.313   -0.034 -0.459  0.302    0.004  0.058 -0.037
 H         -0.132 -0.014 -0.118    0.131  0.015  0.117   -0.022 -0.002 -0.020
 C          0.000  0.010  0.000   -0.011  0.000 -0.021    0.000 -0.092 -0.000
 H         -0.007 -0.063  0.046   -0.013 -0.091  0.063    0.068  0.559 -0.414
 H         -0.000  0.002 -0.000    0.151 -0.000  0.125   -0.000 -0.015 -0.000
 H          0.007 -0.063 -0.046   -0.013  0.091  0.063   -0.068  0.559  0.414
 C          0.019 -0.037 -0.050    0.019 -0.036 -0.048    0.001 -0.004 -0.006
 H          0.132 -0.014  0.118    0.131 -0.015  0.117    0.022 -0.002  0.020
 H         -0.324 -0.012  0.166   -0.320 -0.013  0.164   -0.025 -0.001  0.013
 H         -0.035  0.475  0.313   -0.034  0.460  0.303   -0.004  0.058  0.037
 I         -0.000 -0.000  0.000    0.000 -0.000 -0.000    0.000 -0.000 -0.000
 C          0.000 -0.000 -0.000   -0.000 -0.000  0.000   -0.000  0.000  0.000
 N         -0.000  0.000  0.000    0.000  0.000 -0.000    0.000  0.000 -0.000
 TransDip  -0.000 -0.062  0.000    0.035 -0.000 -0.105    0.000 -0.094 -0.000

 STANDARD THERMODYNAMIC QUANTITIES AT   298.15 K  AND     1.00 ATM

   This Molecule has  0 Imaginary Frequencies
   Zero point vibrational energy:       79.751 kcal/mol

   Atom    1 Element H  Has Mass    1.00783
   Atom    2 Element Si Has Mass   27.97693
   Atom    3 Element C  Has Mass   12.00000
   Atom    4 Element H  Has Mass    1.00783
   Atom    5 Element H  Has Mass    1.00783
   Atom    6 Element H  Has Mass    1.00783
   Atom    7 Element C  Has Mass   12.00000
   Atom    8 Element H  Has Mass    1.00783
   Atom    9 Element H  Has Mass    1.00783
   Atom   10 Element H  Has Mass    1.00783
   Atom   11 Element C  Has Mass   12.00000
   Atom   12 Element H  Has Mass    1.00783
   Atom   13 Element H  Has Mass    1.00783
   Atom   14 Element H  Has Mass    1.00783
   Atom   15 Element I  Has Mass  126.90440
   Atom   16 Element C  Has Mass   12.00000
   Atom   17 Element N  Has Mass   14.00307
   Molecular Mass:   226.962700 amu
   Principal axes and moments of inertia in amu*Bohr^2:
                             1           2           3
    Eigenvalues --      538.10367  4822.24352  4866.20766
          X              -0.99999     0.00000    -0.00371
          Y               0.00000     1.00000     0.00006
          Z              -0.00371    -0.00006     0.99999
   Rotational Symmetry Number is   1
   The Molecule is an Asymmetric Top
   Translational Enthalpy:        0.889 kcal/mol
   Rotational Enthalpy:           0.889 kcal/mol
   Vibrational Enthalpy:         86.002 kcal/mol
   gas constant (RT):             0.592 kcal/mol
   Translational Entropy:        42.161  cal/mol.K
   Rotational Entropy:           30.913  cal/mol.K
   Vibrational Entropy:          46.867  cal/mol.K

   Total Enthalpy:               88.372 kcal/mol
   Total Entropy:               119.942  cal/mol.K

   Quasi-RRHO corrections using alpha = 4, and omega = 100 cm^-1
   QRRHO-Vib. Enthalpy:          84.367 kcal/mol
   QRRHO-Vib. Entropy:           39.486  cal/mol.K
   QRRHO-Total Enthalpy:         86.737 kcal/mol
   QRRHO-Total Entropy:         112.561  cal/mol.K
 Total job time:  10124.62s(wall), 124828.96s(cpu) 
 Tue Jun 11 06:42:04 2024

        *************************************************************
        *                                                           *
        *  Thank you very much for using Q-Chem.  Have a nice day.  *
        *                                                           *
        *************************************************************


