
Running Job 1 of 2 Me3SiH_ICF3_vfb_backward.in
qchem Me3SiH_ICF3_vfb_backward.in_2799701.0 /data/scratch/Me3SiH_ICF3_vfb_backward20240611170935/ 1
/opt/qchem/6.1/exe/qcprog.exe_s Me3SiH_ICF3_vfb_backward.in_2799701.0 /data/scratch/Me3SiH_ICF3_vfb_backward20240611170935/
                  Welcome to Q-Chem
     A Quantum Leap Into The Future Of Chemistry


 Q-Chem 6.1, Q-Chem, Inc., Pleasanton, CA (2023)

 E. Epifanovsky,  A. T. B. Gilbert,  Xintian Feng,  Joonho Lee,  Yuezhi Mao,  
 N. Mardirossian,  P. Pokhilko,  A. White,  M. Wormit,  M. P. Coons,  
 A. L. Dempwolff,  Zhengting Gan,  D. Hait,  P. R. Horn,  L. D. Jacobson,  
 I. Kaliman,  J. Kussmann,  A. W. Lange,  Ka Un Lao,  D. S. Levine,  Jie Liu,  
 S. C. McKenzie,  A. F. Morrison,  K. D. Nanda,  F. Plasser,  D. R. Rehn,  
 M. L. Vidal,  Zhi-Qiang You,  Ying Zhu,  B. Alam,  B. Albrecht,  
 A. Aldossary,  E. Alguire,  J. H. Andersen,  V. Athavale,  D. Barton,  
 K. Begam,  A. Behn,  N. Bellonzi,  Y. A. Bernard,  E. J. Berquist,  
 H. Burton,  A. Carreras,  K. Carter-Fenk,  Mathew Chow,  Romit Chakraborty,  
 Chandrima Chakravarty,  Junhan Chen,  A. D. Chien,  K. D. Closser,  
 V. Cofer-Shabica,  L. Cunha,  S. Dasgupta,  Jia Deng,  M. de Wergifosse,  
 M. Diedenhofen,  Hainam Do,  S. Ehlert,  Po-Tung Fang,  S. Fatehi,  
 Qingguo Feng,  T. Friedhoff,  Thomas Froitzheim,  B. Ganoe,  J. Gayvert,  
 Qinghui Ge,  G. Gidofalvi,  M. Gimferrer,  M. Goldey,  Montgomery Gray,  
 J. Gomes,  C. Gonzalez-Espinoza,  S. Gulania,  A. Gunina,  J. A. Gyamfi,  
 M. W. D. Hanson-Heine,  P. H. P. Harbach,  A. W. Hauser,  M. F. Herbst,  
 M. Hernandez Vera,  M. Hodecker,  Z. C. Holden,  S. Houck,  Xunkun Huang,  
 Kerwin Hui,  B. C. Huynh,  K. Ikeda,  M. Ivanov,  Hyunjun Ji,  Zuxin Jin,  
 Hanjie Jiang,  Subrata Jana,  B. Kaduk,  S. Kaehler,  R. Kang,  
 K. Khistyaev,  Jaehoon Kim,  Yongbin Kim,  P. Klunzinger,  Z. Koczor-Benda,  
 Joong Hoon Koh,  D. Kosenkov,  Saikiran Kotaru,  L. Koulias,  T. Kowalczyk,  
 C. M. Krauter,  K. Kue,  A. Kunitsa,  T. Kus,  A. Landau,  K. V. Lawler,  
 D. Lefrancois,  S. Lehtola,  Rain Li,  Shaozhi Li,  Yi-Pei Li,  
 Jiashu Liang,  M. Liebenthal,  Hung-Hsuan Lin,  You-Sheng Lin,  Fenglai Liu,  
 Kuan-Yu Liu,  Xiao Liu,  M. Loipersberger,  A. Luenser,  C. Malbon,  
 A. Manjanath,  P. Manohar,  E. Mansoor,  S. F. Manzer,  Shan-Ping Mao,  
 A. V. Marenich,  T. Markovich,  S. Mason,  F. Matz,  S. A. Maurer,  
 P. F. McLaughlin,  M. F. S. J. Menger,  J.-M. Mewes,  S. A. Mewes,  
 P. Morgante,  Mohammad Mostafanejad,  J. W. Mullinax,  K. J. Oosterbaan,  
 G. Paran,  V. Parravicini,  Alexander C. Paul,  Suranjan K. Paul,  
 F. Pavosevic,  Zheng Pei,  S. Prager,  E. I. Proynov,  E. Ramos,  B. Rana,  
 A. E. Rask,  A. Rettig,  R. M. Richard,  F. Rob,  E. Rossomme,  T. Scheele,  
 M. Scheurer,  M. Schneider,  P. E. Schneider,  Tim K. Schramm,  N. Sergueev,  
 S. M. Sharada,  M. Sharma,  Hengyuan Shen,  W. Skomorowski,  D. W. Small,  
 C. J. Stein,  Alistair J. Sterling,  Yingli Su,  Yu-Chuan Su,  
 E. J. Sundstrom,  J. Talbot,  Zhen Tao,  J. Thirman,  Hung-Yi Tsai,  
 T. Tsuchimochi,  N. M. Tubman,  C. Utku,  S. P. Veccham,  O. Vydrov,  
 J. Wenzel,  Jonathan Wong,  J. Witte,  A. Yamada,  Chou-Hsun Yang,  Kun Yao,  
 S. Yeganeh,  S. R. Yost,  A. Zech,  F. Zeller,  Igor Ying Zhang,  
 Xing Zhang,  Yu Zhang,  D. Zuev,  A. Aspuru-Guzik,  A. T. Bell,  
 N. A. Besley,  K. B. Bravaya,  B. R. Brooks,  D. Casanova,  Jeng-Da Chai,  
 Hsing-Ta Chen,  S. Coriani,  C. J. Cramer,  A. E. DePrince, III,  
 R. A. DiStasio Jr.,  A. Dreuw,  B. D. Dunietz,  T. R. Furlani,  
 W. A. Goddard III,  S. Grimme,  S. Hammes-Schiffer,  T. Head-Gordon,  
 W. J. Hehre,  Chao-Ping Hsu,  T.-C. Jagau,  Yousung Jung,  A. Klamt,  
 Jing Kong,  D. S. Lambrecht,  Xiangyuan Li,  WanZhen Liang,  N. J. Mayhall,  
 C. W. McCurdy,  J. B. Neaton,  T. Neudecker,  C. Ochsenfeld,  
 J. A. Parkhill,  R. Peverati,  V. A. Rassolov,  Haisheng Ren,  Yihan Shao,  
 L. V. Slipchenko,  R. P. Steele,  J. E. Subotnik,  A. J. W. Thom,  
 A. Tkatchenko,  D. G. Truhlar,  T. Van Voorhis,  Fan Wang,  
 T. A. Wesolowski,  K. B. Whaley,  H. L. Woodcock III,  P. M. Zimmerman,  
 S. Faraji,  P. M. W. Gill,  M. Head-Gordon,  J. M. Herbert,  A. I. Krylov

 Contributors to earlier versions of Q-Chem not listed above: 
 R. D. Adamson,  B. Austin,  R. Baer,  J. Baker,  G. J. O. Beran,  
 K. Brandhorst,  S. T. Brown,  E. F. C. Byrd,  Arup K. Chakraborty,  
 G. K. L. Chan,  Chun-Min Chang,  Yunqing Chen,  C.-L. Cheng,  
 Siu Hung Chien,  D. M. Chipman,  D. L. Crittenden,  H. Dachsel,  
 R. J. Doerksen,  A. D. Dutoi,  R. G. Edgar,  J. Fosso-Tande,  
 L. Fusti-Molnar,  D. Ghosh,  A. Ghysels,  A. Golubeva-Zadorozhnaya,  
 J. Gonthier,  M. S. Gordon,  S. R. Gwaltney,  G. Hawkins,  J. E. Herr,  
 A. Heyden,  S. Hirata,  E. G. Hohenstein,  G. Kedziora,  F. J. Keil,  
 C. Kelley,  Jihan Kim,  R. A. King,  R. Z. Khaliullin,  P. P. Korambath,  
 W. Kurlancheek,  A. Laurent,  A. M. Lee,  M. S. Lee,  S. V. Levchenko,  
 Ching Yeh Lin,  D. Liotard,  E. Livshits,  R. C. Lochan,  I. Lotan,  
 L. A. Martinez-Martinez,  P. E. Maslen,  N. Nair,  D. P. O'Neill,  
 D. Neuhauser,  E. Neuscamman,  C. M. Oana,  R. Olivares-Amaya,  R. Olson,  
 T. M. Perrine,  B. Peters,  P. A. Pieniazek,  A. Prociuk,  Y. M. Rhee,  
 J. Ritchie,  M. A. Rohrdanz,  E. Rosta,  N. J. Russ,  H. F. Schaefer III,  
 M. W. Schmidt,  N. E. Schultz,  S. Sharma,  N. Shenvi,  C. D. Sherrill,  
 A. C. Simmonett,  A. Sodt,  T. Stein,  D. Stuck,  K. S. Thanthiriwatte,  
 V. Vanovschi,  L. Vogt,  Tao Wang,  A. Warshel,  M. A. Watson,  
 C. F. Williams,  Q. Wu,  X. Xu,  Jun Yang,  W. Zhang,  Yan Zhao

   Please cite Q-Chem as follows:
  "Software for the frontiers of quantum chemistry:
   An overview of developments in the Q-Chem 5 package"
   J. Chem. Phys. 155, 084801 (2021)
   https://doi.org/10.1063/5.0055522 (open access)

 Q-Chem 6.1.1 for Intel X86 EM64T Linux

 Parts of Q-Chem use Armadillo 9.900.5 (Nocturnal Misbehaviour).
 http://arma.sourceforge.net/

 Q-Chem begins on Tue Jun 11 17:09:36 2024  

 Host: 
0

     Scratch files written to /data/scratch/Me3SiH_ICF3_vfb_backward20240611170935//
 Jan1824 |scratch|qcdevops|jenkins|workspace|build_RNUM -1
 Processing $rem in /opt/qchem/6.1/config/preferences:
 Processing $rem in /home/ymao/.qchemrc:

 Checking the input file for inconsistencies... 	...done.
 Reading auxiliary files from /opt/qchem/6.1/qcaux (QCAUX)

--------------------------------------------------------------
User input:
--------------------------------------------------------------
$molecule
0 1
--
0 1
C    2.9099427164  -1.5455816664   1.0287056806
Si   3.1315821078  -0.0004365354  -0.0250327230
C    4.8108030443  -0.0036246845  -0.8768617423
C    2.9100490034   1.5521147824   1.0178015819
H    2.0709240204  -0.0037859214  -1.0959634872
H    2.9966513272  -2.4612846418   0.4219707332
H    3.6770752202  -1.5927888082   1.8191986691
H    1.9231777602  -1.5592076496   1.5187816698
H    4.9358748887  -0.8960269843  -1.5106045549
H    4.9361024130   0.8843421917  -1.5167609654
H    5.6258216346  -0.0011618467  -0.1343730854
H    1.9231385571   1.5691704169   1.5074978608
H    3.6769769086   1.6051735502   1.8081040502
H    2.9967423708   2.4633994551   0.4044386901
--
0 1
I   -0.7477041975  -0.0026311828  -0.3620324281
C   -2.8116506363  -0.0021542445   0.2072182160
F   -3.1028158745   1.0809723613   0.9284464012
F   -3.5978441704  -0.0084382020  -0.8694556745
F   -3.1004120749  -1.0785913800   0.9393044422
$end

$rem
JOBTYPE  OPT
GEN_SCFMAN  TRUE
VFB_CTA  BACKWARD
METHOD  WB97X-V
BASIS  DEF2-SVPD
UNRESTRICTED  FALSE
MAX_SCF_CYCLES  2000
THRESH  14
SCF_CONVERGENCE  9
MEM_TOTAL  8000
MEM_STATIC  2000
SCF_GUESS  FRAGMO
SYMMETRY  FALSE
SYM_IGNORE  FALSE
SCF_ALGORITHM  DIIS
BASIS_LIN_DEP_THRESH  6
IDERIV  1
SCFMI_MODE  0
XC_GRID  000075000302
NL_GRID  1
FD_MAT_VEC_PROD  FALSE
GEOM_OPT_TOL_GRADIENT  50
GEOM_OPT_TOL_DISPLACEMENT  50
GEOM_OPT_TOL_ENERGY  10
GEOM_OPT_DRIVER  OPTIMIZE
GEOM_OPT_MAX_CYCLES  200
$end

--------------------------------------------------------------
 ----------------------------------------------------------------
             Standard Nuclear Orientation (Angstroms)
    I     Atom           X                Y                Z
 ----------------------------------------------------------------
    1      C       2.9273030550    -1.5491726928     1.0159248756
    2      Si      3.1497002916    -0.0000599357    -0.0318113765
    3      C       4.8290515809    -0.0006097400    -0.8833891714
    4      C       2.9286037129     1.5485424999     1.0169701534
    5      H       2.0892066122     0.0011307335    -1.1029095217
    6      H       3.0137529156    -2.4625617963     0.4056754299
    7      H       3.6942950769    -1.5997245571     1.8063473606
    8      H       1.9404571532    -1.5643084861     1.5057935266
    9      H       4.9538778196    -0.8906089560    -1.5205505239
   10      H       4.9547917792     0.8897705020    -1.5198391285
   11      H       5.6439562326    -0.0013252911    -0.1407717258
   12      H       1.9416241928     1.5640896145     1.5065774281
   13      H       3.6954297703     1.5982566056     1.8075888613
   14      H       3.0157427875     2.4621528888     0.4071403650
   15      I      -0.7295344119     0.0005412982    -0.3694111541
   16      C      -2.7935685170    -0.0003817097     0.1995209916
   17      F      -3.0844282305     1.0800669603     0.9248773411
   18      F      -3.5795979086    -0.0022092745    -0.8772895225
   19      F      -3.0828575921    -1.0795233645     0.9274052116
 ----------------------------------------------------------------
 Molecular Point Group                 C1    NOp =  1
 Largest Abelian Subgroup              C1    NOp =  1
 Nuclear Repulsion Energy =         696.68155308 hartrees
 There are       50 alpha and       50 beta electrons
 Requested basis set is def2-SVPD
 There are 122 shells and 288 basis functions

 Total QAlloc Memory Limit   8000 MB
 Mega-Array Size      1956 MB
 MEM_STATIC part      2000 MB

 A cutoff of  1.0D-14 yielded   6573 shell pairs
 There are     36777 function pairs (     41822 Cartesian)
 Requested basis set is def2-SVPD
 Compound shells will be simplified
 There are 122 shells and 288 basis functions
 A cutoff of  1.0D-14 yielded   6573 shell pairs
 There are     36777 function pairs (     41822 Cartesian)
 Smallest overlap matrix eigenvalue = 1.48E-04

 Scale SEOQF with 1.000000e-02/1.000000e-01/1.000000e-01

 Standard Electronic Orientation quadrupole field applied
 Nucleus-field energy     =     0.0000000019 hartrees
 Attempting to make child job directory: /data/scratch/Me3SiH_ICF3_vfb_backward20240611170935//Frg1/
 Attempting to make child job directory: /data/scratch/Me3SiH_ICF3_vfb_backward20240611170935//Frg2/
 Creating input file /data/scratch/Me3SiH_ICF3_vfb_backward20240611170935/Frg1.input
 using default PutDataFrgm: nothing
 calling putenv with: QCSCRATCH=/data/scratch/Me3SiH_ICF3_vfb_backward20240611170935/ 
 Spawning Job For Fragment 0
 Done Job For Fragment 0
 calling putenv with: QCSCRATCH=/data/scratch 
 calling putenv with: QCTHREADS=16 
 Creating input file /data/scratch/Me3SiH_ICF3_vfb_backward20240611170935/Frg2.input
 using default PutDataFrgm: nothing
 calling putenv with: QCSCRATCH=/data/scratch/Me3SiH_ICF3_vfb_backward20240611170935/ 
 Spawning Job For Fragment 1
 Done Job For Fragment 1
 calling putenv with: QCSCRATCH=/data/scratch 
 calling putenv with: QCTHREADS=16 
 Time for running child jobs:  CPU 2.05 s  wall 29.50 s

 -----------------------------------------------------------------------
  General SCF calculation program by
  Eric Jon Sundstrom, Paul Horn, Yuezhi Mao, Dmitri Zuev, Alec White,
  David Stuck, Shaama M.S., Shane Yost, Joonho Lee, David Small,
  Daniel Levine, Susi Lehtola, Hugh Burton, Evgeny Epifanovsky,
  Bang C. Huynh
 -----------------------------------------------------------------------
Performing Restricted Closed Shell SCFMI
Doing General SCFMI
 Exchange:     0.1670 Hartree-Fock + 1.0000 wB97X-V + LR-HF
 Correlation:  1.0000 wB97X-V
 Using Euler-Maclaurin-Lebedev (75,302) quadrature formula
 Nonlocal Correlation:  VV10 with C = 0.0100 and b = 6.00 and scale = 1.00000
 Grid used for NLC:  SG-1 standard quadrature
performing fock build before subrot guess so that all methods have access
 using 16 threads for integral computing
 -------------------------------------------------------
 OpenMP Integral computing Module                
 Release: version 1.0, May 2013, Q-Chem Inc. Pittsburgh 
 -------------------------------------------------------
Printing subrot_rss_gen Method Specification:
Occupied Subspace Method is 0
Virtual Subspace Method is 0
Energy prior to optimization (guess energy) = -1044.580735718367
Begin Timing: Total SCF Calculation
begin iterations for algorithm: DIIS         
the SCF tolerance is set to 1.00e-09
    1   -1044.5807357184      1.39e-04     00000 
    2   -1044.5818174449      5.17e-05     00000 
    3   -1044.5819380341      2.55e-05     00000 
    4   -1044.5819614051      1.23e-05     00000 
    5   -1044.5819653983      7.37e-06     00000 
    6   -1044.5819667004      2.97e-06     00000 
    7   -1044.5819668560      1.21e-06     00000 
    8   -1044.5819668819      4.08e-07     00000 
    9   -1044.5819668864      2.03e-07     00000 
   10   -1044.5819668874      1.07e-07     00000 
   11   -1044.5819668878      3.85e-08     00000 
   12   -1044.5819668878      1.36e-08     00000 
   13   -1044.5819668878      4.71e-09     00000 
   14   -1044.5819668878      1.60e-09     00000 
   15   -1044.5819668878      7.43e-10     00000 Convergence criterion met
write pseudocanon occs and virts to disk
write pseudocanon orbital energies to disk
Timing for Total SCF: 69.00s (wall), 1018.53s (cpu)
SCFMI Energy   -1044.5819668878
<S^2>            0.00000
====================================================================
           Variational forward-backward (VFB) CT analysis           
 M. Loipersberger, Y. Mao and M. Head-Gordon, JCTC, 16, 1073 (2020) 
====================================================================
Calculating stabilization due to the backward (2->1) CT
Requested donor fragment: 2
updated OccSS dimension
        21
        29
updated VirtSS dimension
          143
          238
Energy prior to optimization (guess energy) = -1044.581966887819
Begin Timing: Total SCF Calculation
begin iterations for algorithm: DIIS         
the SCF tolerance is set to 1.00e-09
    1   -1044.5819668878      1.86e-04     00000 
    2   -1044.5828151632      1.18e-05     00000 
    3   -1044.5828315961      2.18e-06     00000 
    4   -1044.5828321929      8.55e-07     00000 
    5   -1044.5828322421      3.03e-07     00000 
    6   -1044.5828322520      1.56e-07     00000 
    7   -1044.5828322547      7.07e-08     00000 
    8   -1044.5828322554      2.88e-08     00000 
    9   -1044.5828322555      6.21e-09     00000 
   10   -1044.5828322555      2.61e-09     00000 
   11   -1044.5828322555      9.73e-10     00000 Convergence criterion met
write pseudocanon occs and virts to disk
write pseudocanon orbital energies to disk
Timing for Total SCF: 51.00s (wall), 757.30s (cpu)
Energy of the one-side CT state:    -1044.5828322555
Stabilization due to one-side CT:    -2.2720 kJ/mol
<S^2>            0.00000
 Total energy in the final basis set =    -1044.5828322555
    ==================================================
        The end of Object-Oriented SCFman: SCFMI      
    ==================================================
 
 --------------------------------------------------------------
 
                    Orbital Energies (a.u.)
 --------------------------------------------------------------
 
 Alpha MOs
 -- Occupied --
-66.1290 -24.8363 -24.8363 -24.8362 -10.5882 -10.2713 -10.2706 -10.2706
 -6.9768  -5.3842  -5.0128  -4.9946  -4.9946  -3.7385  -3.7375  -3.7375
 -2.0654  -2.0598  -2.0597  -2.0446  -2.0446  -1.4659  -1.3698  -1.3697
 -0.8962  -0.8463  -0.8203  -0.8059  -0.8055  -0.7419  -0.7419  -0.6942
 -0.6145  -0.6144  -0.6016  -0.5764  -0.5764  -0.5518  -0.5357  -0.5227
 -0.5222  -0.5029  -0.5025  -0.4913  -0.4764  -0.4145  -0.4113  -0.4111
 -0.3887  -0.3883
 -- Virtual --
  0.0174   0.0676   0.0755   0.0806   0.0825   0.1038   0.1118   0.1122
  0.1361   0.1400   0.1488   0.1510   0.1543   0.1616   0.1699   0.1715
  0.1745   0.1787   0.1857   0.1922   0.1959   0.2026   0.2106   0.2137
  0.2140   0.2195   0.2256   0.2260   0.2422   0.2471   0.2540   0.2586
  0.2704   0.2740   0.2807   0.2910   0.2914   0.2988   0.3028   0.3045
  0.3202   0.3239   0.3301   0.3327   0.3347   0.3435   0.3555   0.3630
  0.3755   0.3757   0.3930   0.4010   0.4084   0.4114   0.4161   0.4184
  0.4278   0.4315   0.4363   0.4418   0.4473   0.4525   0.4533   0.4646
  0.4668   0.4713   0.4769   0.4770   0.4789   0.4856   0.4893   0.4953
  0.5156   0.5207   0.5293   0.5315   0.5366   0.5417   0.5494   0.5500
  0.5588   0.5617   0.5705   0.5736   0.5891   0.5914   0.6013   0.6110
  0.6135   0.6142   0.6264   0.6277   0.6346   0.6623   0.6686   0.6804
  0.6826   0.6886   0.7088   0.7097   0.7129   0.7281   0.7331   0.7435
  0.7540   0.7718   0.7723   0.7736   0.7918   0.8035   0.8242   0.8289
  0.8319   0.8460   0.8626   0.8782   0.8861   0.8875   0.9113   0.9121
  0.9308   0.9389   0.9530   0.9591   0.9690   0.9725   0.9895   1.0036
  1.0303   1.0323   1.0418   1.0574   1.0646   1.0831   1.0890   1.0911
  1.0942   1.1065   1.1150   1.1308   1.1535   1.1598   1.1757   1.1773
  1.1900   1.1986   1.2041   1.2487   1.2491   1.2707   1.2845   1.2853
  1.3274   1.3928   1.3954   1.4272   1.4555   1.6705   1.6865   1.6961
  1.7047   1.7211   1.7544   1.7779   1.7921   1.8080   1.8120   1.8124
  1.8187   1.8317   1.8350   1.8741   1.9238   1.9553   2.0101   2.0138
  2.0147   2.0231   2.0243   2.0274   2.0326   2.0586   2.0638   2.0870
  2.1003   2.1323   2.1428   2.1656   2.1869   2.1870   2.2021   2.2048
  2.2160   2.2286   2.2296   2.2365   2.2449   2.3345   2.3577   2.3836
  2.4140   2.4561   2.4806   2.4832   2.6107   2.6150   2.6167   2.6282
  2.6322   2.6456   2.9055   2.9090   2.9150   3.1846   3.1880   3.1896
  3.2195   3.2292   3.2463   3.3244   3.3890   3.3932   3.3935   3.4094
  3.4123   3.4506   3.4541   3.4566   3.6002   3.7603   3.7609   3.8375
  4.0720   4.0753  19.1442  19.2376  20.1254  56.6862
 --------------------------------------------------------------
 
          Ground-State Mulliken Net Atomic Charges

     Atom                 Charge (a.u.)
  ----------------------------------------
      1 C                     0.100581
      2 Si                   -0.483468
      3 C                     0.093916
      4 C                     0.100528
      5 H                     0.368267
      6 H                    -0.028172
      7 H                    -0.018436
      8 H                    -0.020285
      9 H                    -0.018877
     10 H                    -0.018904
     11 H                    -0.020688
     12 H                    -0.020060
     13 H                    -0.018691
     14 H                    -0.028041
     15 I                     0.316708
     16 C                     0.839309
     17 F                    -0.371826
     18 F                    -0.400105
     19 F                    -0.371756
  ----------------------------------------
  Sum of atomic charges =     0.000000

 -----------------------------------------------------------------
                    Cartesian Multipole Moments
 -----------------------------------------------------------------
    Charge (ESU x 10^10)
                 0.0000
    Dipole Moment (Debye)
         X       1.9679      Y      -0.0004      Z       0.1665
       Tot       1.9749
    Quadrupole Moments (Debye-Ang)
        XX     -81.7714     XY      -0.0011     YY     -84.0627
        XZ       0.9757     YZ      -0.0003     ZZ     -84.2051
    Octopole Moments (Debye-Ang^2)
       XXX     -84.1315    XXY       0.0015    XYY     -33.1904
       YYY       0.0136    XXZ       1.3839    XYZ      -0.0015
       YYZ      -8.2778    XZZ     -33.2255    YZZ       0.0045
       ZZZ     -10.6195
    Hexadecapole Moments (Debye-Ang^3)
      XXXX   -4040.6601   XXXY       0.0050   XXYY    -743.7533
      XYYY       0.0216   YYYY    -433.4294   XXXZ      36.3661
      XXYZ      -0.0329   XYYZ     -10.7495   YYYZ      -0.0092
      XXZZ    -731.9789   XYZZ      -0.0153   YYZZ    -136.0411
      XZZZ       0.6572   YZZZ      -0.0115   ZZZZ    -370.7233
 -----------------------------------------------------------------
 Calculating analytic gradient of the SCF energy
 Gradient of SCF Energy
            1           2           3           4           5           6
    1  -0.0001654   0.0004171  -0.0000699  -0.0001579  -0.0021781  -0.0000133
    2   0.0000262  -0.0000108  -0.0000029  -0.0000284   0.0000121   0.0000012
    3  -0.0000543   0.0012327  -0.0003884  -0.0000474  -0.0004603   0.0000207
            7           8           9          10          11          12
    1   0.0000152   0.0000690  -0.0000292  -0.0000304  -0.0001488   0.0000650
    2   0.0000448   0.0000050   0.0000419  -0.0000410   0.0000001  -0.0000083
    3  -0.0000625  -0.0000343   0.0000215   0.0000217   0.0001347  -0.0000375
           13          14          15          16          17          18
    1   0.0000107  -0.0000144   0.0027789   0.0001136  -0.0001870  -0.0002867
    2  -0.0000374  -0.0000029   0.0000056  -0.0000152   0.0001705   0.0000001
    3  -0.0000629   0.0000159  -0.0003942  -0.0000995   0.0001654  -0.0001341
           19
    1  -0.0001883
    2  -0.0001605
    3   0.0001628
 Max gradient component =       2.779E-03
 RMS gradient           =       5.150E-04
 Gradient time:  CPU 200.12 s  wall 13.66 s
 Geometry Optimization Parameters
   NAtoms,    NIC,     NZ,  NCons,   NDum,   NFix, NCnnct, MaxDiis
       19     122       0       0       0       0       0       0


** GEOMETRY OPTIMIZATION IN DELOCALIZED INTERNAL COORDINATES **
   Searching for a Minimum

   Optimization Cycle:   1

                       Coordinates (Angstroms)
     ATOM                X               Y               Z
      1  C         2.9273030550   -1.5491726928    1.0159248756
      2  Si        3.1497002916   -0.0000599357   -0.0318113765
      3  C         4.8290515809   -0.0006097400   -0.8833891714
      4  C         2.9286037129    1.5485424999    1.0169701534
      5  H         2.0892066122    0.0011307335   -1.1029095217
      6  H         3.0137529156   -2.4625617963    0.4056754299
      7  H         3.6942950769   -1.5997245571    1.8063473606
      8  H         1.9404571532   -1.5643084861    1.5057935266
      9  H         4.9538778196   -0.8906089560   -1.5205505239
     10  H         4.9547917792    0.8897705020   -1.5198391285
     11  H         5.6439562326   -0.0013252911   -0.1407717258
     12  H         1.9416241928    1.5640896145    1.5065774281
     13  H         3.6954297703    1.5982566056    1.8075888613
     14  H         3.0157427875    2.4621528888    0.4071403650
     15  I        -0.7295344119    0.0005412982   -0.3694111541
     16  C        -2.7935685170   -0.0003817097    0.1995209916
     17  F        -3.0844282305    1.0800669603    0.9248773411
     18  F        -3.5795979086   -0.0022092745   -0.8772895225
     19  F        -3.0828575921   -1.0795233645    0.9274052116
   Point Group: c1    Number of degrees of freedom:    51


   Energy is  -1044.582832256


 Attempting to generate delocalized internal coordinates
 Initial Hessian constructed with Jon Baker's OPTIMIZE code

 51 Hessian modes will be used to form the next step
  Hessian Eigenvalues:
     0.002000    0.002010    0.003275    0.003276    0.003331    0.015255
     0.035657    0.044519    0.044685    0.054297    0.054318    0.054516
     0.055016    0.055037    0.055115    0.107850    0.144898    0.145447
     0.147077    0.148136    0.160000    0.160000    0.160000    0.160000
     0.160000    0.160000    0.160000    0.160000    0.160000    0.160000
     0.165462    0.201977    0.202045    0.205149    0.205154    0.205390
     0.250000    0.250000    0.250000    0.334025    0.334039    0.334049
     0.334736    0.334742    0.334778    0.334788    0.334991    0.334992
     0.586963    0.587016    0.587611

 Minimum search - taking simple RFO step
 Searching for Lamda that Minimizes Along All modes
 Value Taken    Lamda =  -0.00033941
 Step Taken.  Stepsize is  0.144323

                             Maximum     Tolerance    Cnvgd?
         Gradient           0.001627      0.000050      NO
         Displacement       0.083602      0.000050      NO
         Energy change     *********      0.000000      NO


 New Cartesian Coordinates Obtained by Inverse Iteration

 Displacement from previous Coordinates is:  0.292952
 ----------------------------------------------------------------
             Standard Nuclear Orientation (Angstroms)
    I     Atom           X                Y                Z
 ----------------------------------------------------------------
    1      C       2.9495541655    -1.5491226707     1.0167856280
    2      Si      3.1690406453    -0.0001678413    -0.0323672135
    3      C       4.8489061225    -0.0005041994    -0.8838053017
    4      C       2.9504403566     1.5483016915     1.0177060562
    5      H       2.1069540382     0.0006606413    -1.0995834030
    6      H       3.0373739410    -2.4626620602     0.4069174517
    7      H       3.7165040777    -1.5983453837     1.8074127286
    8      H       1.9626361748    -1.5656111472     1.5067368977
    9      H       4.9735876845    -0.8904870519    -1.5211554800
   10      H       4.9742182667     0.8897894980    -1.5205974344
   11      H       5.6651605302    -0.0010265416    -0.1426300579
   12      H       1.9634282505     1.5650083872     1.5074733872
   13      H       3.7172629625     1.5968447029     1.8084872984
   14      H       3.0387380606     2.4620748739     0.4082505258
   15      I      -0.7889252082     0.0004411424    -0.3611455877
   16      C      -2.8529631479    -0.0001866360     0.1975495216
   17      F      -3.1461745790     1.0803384385     0.9214007030
   18      F      -3.6330114005    -0.0017948486    -0.8832917801
   19      F      -3.1449246210    -1.0794856963     0.9237054806
 ----------------------------------------------------------------
 Molecular Point Group                 C1    NOp =  1
 Largest Abelian Subgroup              C1    NOp =  1
 Nuclear Repulsion Energy =         693.39958873 hartrees
 There are       50 alpha and       50 beta electrons
 Applying Cartesian multipole field
    Component          Value
    ---------          -----
     (2,0,0)        1.00000E-12
     (0,2,0)        2.00000E-11
     (0,0,2)       -3.00000E-11
 Nucleus-field energy     =     0.0000000020 hartrees
 Requested basis set is def2-SVPD
 There are 122 shells and 288 basis functions
 A cutoff of  1.0D-14 yielded   6544 shell pairs
 There are     36552 function pairs (     41548 Cartesian)
 Requested basis set is def2-SVPD
 Compound shells will be simplified
 There are 122 shells and 288 basis functions
 A cutoff of  1.0D-14 yielded   6544 shell pairs
 There are     36552 function pairs (     41548 Cartesian)
 Smallest overlap matrix eigenvalue = 1.50E-04
 Attempting to make child job directory: /data/scratch/Me3SiH_ICF3_vfb_backward20240611170935//Frg1/
 Failed to make child job directory:     /data/scratch/Me3SiH_ICF3_vfb_backward20240611170935//Frg1/
 Attempting to make child job directory: /data/scratch/Me3SiH_ICF3_vfb_backward20240611170935//Frg2/
 Failed to make child job directory:     /data/scratch/Me3SiH_ICF3_vfb_backward20240611170935//Frg2/
 Creating input file /data/scratch/Me3SiH_ICF3_vfb_backward20240611170935/Frg1.input
 using default PutDataFrgm: nothing
 calling putenv with: QCSCRATCH=/data/scratch/Me3SiH_ICF3_vfb_backward20240611170935/ 
 Spawning Job For Fragment 0
 Done Job For Fragment 0
 calling putenv with: QCSCRATCH=/data/scratch 
 calling putenv with: QCTHREADS=16 
 Creating input file /data/scratch/Me3SiH_ICF3_vfb_backward20240611170935/Frg2.input
 using default PutDataFrgm: nothing
 calling putenv with: QCSCRATCH=/data/scratch/Me3SiH_ICF3_vfb_backward20240611170935/ 
 Spawning Job For Fragment 1
 Done Job For Fragment 1
 calling putenv with: QCSCRATCH=/data/scratch 
 calling putenv with: QCTHREADS=16 
 Time for running child jobs:  CPU 2.59 s  wall 32.55 s

 -----------------------------------------------------------------------
  General SCF calculation program by
  Eric Jon Sundstrom, Paul Horn, Yuezhi Mao, Dmitri Zuev, Alec White,
  David Stuck, Shaama M.S., Shane Yost, Joonho Lee, David Small,
  Daniel Levine, Susi Lehtola, Hugh Burton, Evgeny Epifanovsky,
  Bang C. Huynh
 -----------------------------------------------------------------------
Performing Restricted Closed Shell SCFMI
Doing General SCFMI
 Exchange:     0.1670 Hartree-Fock + 1.0000 wB97X-V + LR-HF
 Correlation:  1.0000 wB97X-V
 Using Euler-Maclaurin-Lebedev (75,302) quadrature formula
 Nonlocal Correlation:  VV10 with C = 0.0100 and b = 6.00 and scale = 1.00000
 Grid used for NLC:  SG-1 standard quadrature
performing fock build before subrot guess so that all methods have access
Printing subrot_rss_gen Method Specification:
Occupied Subspace Method is 0
Virtual Subspace Method is 0
Energy prior to optimization (guess energy) = -1044.581286812237
Begin Timing: Total SCF Calculation
begin iterations for algorithm: DIIS         
the SCF tolerance is set to 1.00e-09
    1   -1044.5812868122      1.27e-04     00000 
    2   -1044.5821999541      4.75e-05     00000 
    3   -1044.5823034425      2.30e-05     00000 
    4   -1044.5823232737      1.07e-05     00000 
    5   -1044.5823265612      6.30e-06     00000 
    6   -1044.5823275536      2.33e-06     00000 
    7   -1044.5823276594      9.22e-07     00000 
    8   -1044.5823276755      2.82e-07     00000 
    9   -1044.5823276777      1.40e-07     00000 
   10   -1044.5823276781      7.18e-08     00000 
   11   -1044.5823276783      2.51e-08     00000 
   12   -1044.5823276783      8.79e-09     00000 
   13   -1044.5823276783      2.91e-09     00000 
   14   -1044.5823276783      8.65e-10     00000 Convergence criterion met
write pseudocanon occs and virts to disk
write pseudocanon orbital energies to disk
Timing for Total SCF: 65.00s (wall), 964.33s (cpu)
SCFMI Energy   -1044.5823276783
<S^2>            0.00000
====================================================================
           Variational forward-backward (VFB) CT analysis           
 M. Loipersberger, Y. Mao and M. Head-Gordon, JCTC, 16, 1073 (2020) 
====================================================================
Calculating stabilization due to the backward (2->1) CT
Requested donor fragment: 2
updated OccSS dimension
        21
        29
updated VirtSS dimension
          143
          238
Energy prior to optimization (guess energy) = -1044.582327678286
Begin Timing: Total SCF Calculation
begin iterations for algorithm: DIIS         
the SCF tolerance is set to 1.00e-09
    1   -1044.5823276783      1.80e-04     00000 
    2   -1044.5830665808      1.06e-05     00000 
    3   -1044.5830795661      1.87e-06     00000 
    4   -1044.5830800050      7.51e-07     00000 
    5   -1044.5830800412      2.72e-07     00000 
    6   -1044.5830800485      1.34e-07     00000 
    7   -1044.5830800504      5.59e-08     00000 
    8   -1044.5830800509      2.17e-08     00000 
    9   -1044.5830800510      4.56e-09     00000 
   10   -1044.5830800510      1.91e-09     00000 
   11   -1044.5830800510      5.73e-10     00000 Convergence criterion met
write pseudocanon occs and virts to disk
write pseudocanon orbital energies to disk
Timing for Total SCF: 49.00s (wall), 737.13s (cpu)
Energy of the one-side CT state:    -1044.5830800510
Stabilization due to one-side CT:    -1.9754 kJ/mol
<S^2>            0.00000
 Total energy in the final basis set =    -1044.5830800510
    ==================================================
        The end of Object-Oriented SCFman: SCFMI      
    ==================================================
 
 --------------------------------------------------------------
 
                    Orbital Energies (a.u.)
 --------------------------------------------------------------
 
 Alpha MOs
 -- Occupied --
-66.1286 -24.8368 -24.8368 -24.8367 -10.5888 -10.2711 -10.2704 -10.2704
 -6.9769  -5.3838  -5.0129  -4.9948  -4.9947  -3.7381  -3.7371  -3.7371
 -2.0655  -2.0599  -2.0598  -2.0448  -2.0448  -1.4665  -1.3703  -1.3703
 -0.8969  -0.8460  -0.8206  -0.8056  -0.8052  -0.7425  -0.7424  -0.6944
 -0.6149  -0.6149  -0.6012  -0.5769  -0.5769  -0.5523  -0.5352  -0.5224
 -0.5219  -0.5026  -0.5021  -0.4911  -0.4764  -0.4150  -0.4110  -0.4107
 -0.3888  -0.3885
 -- Virtual --
  0.0168   0.0679   0.0758   0.0804   0.0825   0.1039   0.1116   0.1121
  0.1368   0.1396   0.1485   0.1515   0.1536   0.1611   0.1694   0.1713
  0.1744   0.1791   0.1847   0.1921   0.1961   0.2026   0.2108   0.2132
  0.2135   0.2184   0.2253   0.2261   0.2410   0.2465   0.2535   0.2566
  0.2686   0.2731   0.2802   0.2911   0.2912   0.2994   0.3028   0.3047
  0.3193   0.3235   0.3293   0.3314   0.3339   0.3441   0.3548   0.3660
  0.3738   0.3749   0.3930   0.4008   0.4084   0.4110   0.4156   0.4185
  0.4266   0.4295   0.4358   0.4415   0.4472   0.4522   0.4525   0.4641
  0.4662   0.4718   0.4758   0.4764   0.4795   0.4851   0.4881   0.4940
  0.5155   0.5192   0.5274   0.5311   0.5372   0.5425   0.5486   0.5497
  0.5569   0.5611   0.5704   0.5723   0.5898   0.5913   0.6019   0.6095
  0.6131   0.6141   0.6259   0.6261   0.6353   0.6614   0.6679   0.6789
  0.6817   0.6861   0.7057   0.7087   0.7109   0.7285   0.7321   0.7414
  0.7508   0.7711   0.7714   0.7747   0.7843   0.8024   0.8244   0.8263
  0.8280   0.8454   0.8606   0.8773   0.8852   0.8873   0.9103   0.9107
  0.9295   0.9372   0.9510   0.9586   0.9692   0.9713   0.9892   1.0028
  1.0302   1.0312   1.0405   1.0558   1.0631   1.0800   1.0886   1.0914
  1.0938   1.1051   1.1147   1.1293   1.1532   1.1596   1.1756   1.1762
  1.1889   1.1952   1.2034   1.2438   1.2490   1.2699   1.2828   1.2846
  1.3251   1.3892   1.3949   1.4267   1.4549   1.6688   1.6858   1.6946
  1.7047   1.7211   1.7545   1.7771   1.7930   1.8061   1.8102   1.8125
  1.8174   1.8313   1.8344   1.8734   1.9235   1.9536   2.0105   2.0136
  2.0147   2.0232   2.0244   2.0268   2.0318   2.0585   2.0629   2.0854
  2.0999   2.1315   2.1427   2.1647   2.1865   2.1866   2.2021   2.2037
  2.2156   2.2281   2.2291   2.2362   2.2445   2.3344   2.3560   2.3811
  2.4127   2.4565   2.4807   2.4835   2.6107   2.6150   2.6165   2.6284
  2.6321   2.6456   2.9054   2.9084   2.9147   3.1841   3.1881   3.1892
  3.2196   3.2293   3.2461   3.3236   3.3885   3.3929   3.3931   3.4087
  3.4114   3.4501   3.4535   3.4558   3.5992   3.7601   3.7607   3.8380
  4.0714   4.0744  19.1381  19.2170  20.1125  56.6728
 --------------------------------------------------------------
 
          Ground-State Mulliken Net Atomic Charges

     Atom                 Charge (a.u.)
  ----------------------------------------
      1 C                     0.096349
      2 Si                   -0.481207
      3 C                     0.096276
      4 C                     0.096326
      5 H                     0.380132
      6 H                    -0.027956
      7 H                    -0.018353
      8 H                    -0.019925
      9 H                    -0.019628
     10 H                    -0.019658
     11 H                    -0.021461
     12 H                    -0.019783
     13 H                    -0.018525
     14 H                    -0.027875
     15 I                     0.309225
     16 C                     0.835993
     17 F                    -0.370646
     18 F                    -0.398698
     19 F                    -0.370585
  ----------------------------------------
  Sum of atomic charges =     0.000000

 -----------------------------------------------------------------
                    Cartesian Multipole Moments
 -----------------------------------------------------------------
    Charge (ESU x 10^10)
                 0.0000
    Dipole Moment (Debye)
         X       1.9298      Y      -0.0002      Z       0.1642
       Tot       1.9368
    Quadrupole Moments (Debye-Ang)
        XX     -81.8525     XY      -0.0007     YY     -84.0850
        XZ       0.9660     YZ      -0.0002     ZZ     -84.2283
    Octopole Moments (Debye-Ang^2)
       XXX     -77.8747    XXY       0.0026    XYY     -31.1546
       YYY       0.0153    XXZ       1.2542    XYZ      -0.0008
       YYZ      -8.4495    XZZ     -31.2129    YZZ       0.0053
       ZZZ     -11.0678
    Hexadecapole Moments (Debye-Ang^3)
      XXXX   -4132.8604   XXXY       0.0714   XXYY    -759.2449
      XYYY       0.0901   YYYY    -433.5917   XXXZ      35.2293
      XXYZ      -0.0237   XYYZ     -11.3302   YYYZ      -0.0046
      XXZZ    -747.4158   XYZZ       0.0105   YYZZ    -135.9496
      XZZZ      -0.7529   YZZZ      -0.0078   ZZZZ    -369.9416
 -----------------------------------------------------------------
 Calculating analytic gradient of the SCF energy
 Gradient of SCF Energy
            1           2           3           4           5           6
    1  -0.0000994   0.0001489   0.0000038  -0.0000932  -0.0011949  -0.0000014
    2  -0.0000012  -0.0000048  -0.0000025   0.0000000   0.0000056   0.0000021
    3  -0.0000362   0.0005126  -0.0001612  -0.0000293  -0.0001159  -0.0000014
            7           8           9          10          11          12
    1   0.0000359   0.0000632  -0.0000234  -0.0000243  -0.0000121   0.0000607
    2   0.0000229   0.0000057   0.0000086  -0.0000082  -0.0000000  -0.0000079
    3  -0.0000183  -0.0000023   0.0000246   0.0000249   0.0000399  -0.0000043
           13          14          15          16          17          18
    1   0.0000324  -0.0000023   0.0007639   0.0003110   0.0000322  -0.0000339
    2  -0.0000171  -0.0000034   0.0000025  -0.0000077   0.0001492  -0.0000014
    3  -0.0000173  -0.0000049  -0.0000308  -0.0001981   0.0000808  -0.0001400
           19
    1   0.0000328
    2  -0.0001423
    3   0.0000773
 Max gradient component =       1.195E-03
 RMS gradient           =       2.130E-04
 Gradient time:  CPU 199.28 s  wall 13.59 s
 Geometry Optimization Parameters
   NAtoms,    NIC,     NZ,  NCons,   NDum,   NFix, NCnnct, MaxDiis
       19     122       0       0       0       0       0       0

 Cartesian Hessian Update
 Hessian updated using BFGS update


** GEOMETRY OPTIMIZATION IN DELOCALIZED INTERNAL COORDINATES **
   Searching for a Minimum

   Optimization Cycle:   2

                       Coordinates (Angstroms)
     ATOM                X               Y               Z
      1  C         2.9495541655   -1.5491226707    1.0167856280
      2  Si        3.1690406453   -0.0001678413   -0.0323672135
      3  C         4.8489061225   -0.0005041994   -0.8838053017
      4  C         2.9504403566    1.5483016915    1.0177060562
      5  H         2.1069540382    0.0006606413   -1.0995834030
      6  H         3.0373739410   -2.4626620602    0.4069174517
      7  H         3.7165040777   -1.5983453837    1.8074127286
      8  H         1.9626361748   -1.5656111472    1.5067368977
      9  H         4.9735876845   -0.8904870519   -1.5211554800
     10  H         4.9742182667    0.8897894980   -1.5205974344
     11  H         5.6651605302   -0.0010265416   -0.1426300579
     12  H         1.9634282505    1.5650083872    1.5074733872
     13  H         3.7172629625    1.5968447029    1.8084872984
     14  H         3.0387380606    2.4620748739    0.4082505258
     15  I        -0.7889252082    0.0004411424   -0.3611455877
     16  C        -2.8529631479   -0.0001866360    0.1975495216
     17  F        -3.1461745790    1.0803384385    0.9214007030
     18  F        -3.6330114005   -0.0017948486   -0.8832917801
     19  F        -3.1449246210   -1.0794856963    0.9237054806
   Point Group: c1    Number of degrees of freedom:    51


   Energy is  -1044.583080051

 Hessian updated using BFGS update

 42 Hessian modes will be used to form the next step
  Hessian Eigenvalues:
     0.002000    0.002010    0.003258    0.003276    0.003331    0.007695
     0.035691    0.044488    0.044685    0.054296    0.054317    0.054518
     0.055016    0.055037    0.055115    0.111475    0.144897    0.145426
     0.147077    0.148139    0.159907    0.163756    0.165110    0.201962
     0.202045    0.205118    0.205152    0.205430    0.249998    0.251817
     0.334029    0.334044    0.334066    0.334736    0.334741    0.334753
     0.334783    0.334986    0.334992    0.586671    0.586993    0.587537

 Minimum search - taking simple RFO step
 Searching for Lamda that Minimizes Along All modes
 Value Taken    Lamda =  -0.00017206
 Step Taken.  Stepsize is  0.148865

                             Maximum     Tolerance    Cnvgd?
         Gradient           0.000726      0.000050      NO
         Displacement       0.084783      0.000050      NO
         Energy change     -0.000248      0.000000      NO


 New Cartesian Coordinates Obtained by Inverse Iteration

 Displacement from previous Coordinates is:  0.284990
 ----------------------------------------------------------------
             Standard Nuclear Orientation (Angstroms)
    I     Atom           X                Y                Z
 ----------------------------------------------------------------
    1      C       2.9665155115    -1.5487809290     1.0122755427
    2      Si      3.1905554908    -0.0001780405    -0.0369654494
    3      C       4.8748847857    -0.0005086055    -0.8798000393
    4      C       2.9673897529     1.5480783062     1.0129741016
    5      H       2.1313996700     0.0004019987    -1.1043715608
    6      H       3.0615017926    -2.4626775066     0.4040092834
    7      H       3.7264179411    -1.5958532032     1.8097692058
    8      H       1.9751672729    -1.5671889237     1.4935448086
    9      H       5.0030003333    -0.8904549093    -1.5166561770
   10      H       5.0035547768     0.8896192069    -1.5162906429
   11      H       5.6878495647    -0.0009148974    -0.1350976805
   12      H       1.9760205810     1.5668032410     1.4941918971
   13      H       3.7272662466     1.5944302031     1.8105298807
   14      H       3.0628725412     2.4621779141     0.4050876933
   15      I      -0.8413422956     0.0003084035    -0.3536677452
   16      C      -2.9094294411    -0.0002157811     0.2027604244
   17      F      -3.2042697262     1.0794650031     0.9266814672
   18      F      -3.6880828575    -0.0009838200    -0.8787804462
   19      F      -3.2034656207    -1.0794623617     0.9276548571
 ----------------------------------------------------------------
 Molecular Point Group                 C1    NOp =  1
 Largest Abelian Subgroup              C1    NOp =  1
 Nuclear Repulsion Energy =         690.13424959 hartrees
 There are       50 alpha and       50 beta electrons
 Applying Cartesian multipole field
    Component          Value
    ---------          -----
     (2,0,0)        1.00000E-12
     (0,2,0)        2.00000E-11
     (0,0,2)       -3.00000E-11
 Nucleus-field energy     =     0.0000000021 hartrees
 Requested basis set is def2-SVPD
 There are 122 shells and 288 basis functions
 A cutoff of  1.0D-14 yielded   6518 shell pairs
 There are     36402 function pairs (     41377 Cartesian)
 Requested basis set is def2-SVPD
 Compound shells will be simplified
 There are 122 shells and 288 basis functions
 A cutoff of  1.0D-14 yielded   6518 shell pairs
 There are     36402 function pairs (     41377 Cartesian)
 Smallest overlap matrix eigenvalue = 1.52E-04
 Attempting to make child job directory: /data/scratch/Me3SiH_ICF3_vfb_backward20240611170935//Frg1/
 Failed to make child job directory:     /data/scratch/Me3SiH_ICF3_vfb_backward20240611170935//Frg1/
 Attempting to make child job directory: /data/scratch/Me3SiH_ICF3_vfb_backward20240611170935//Frg2/
 Failed to make child job directory:     /data/scratch/Me3SiH_ICF3_vfb_backward20240611170935//Frg2/
 Creating input file /data/scratch/Me3SiH_ICF3_vfb_backward20240611170935/Frg1.input
 using default PutDataFrgm: nothing
 calling putenv with: QCSCRATCH=/data/scratch/Me3SiH_ICF3_vfb_backward20240611170935/ 
 Spawning Job For Fragment 0
 Done Job For Fragment 0
 calling putenv with: QCSCRATCH=/data/scratch 
 calling putenv with: QCTHREADS=16 
 Creating input file /data/scratch/Me3SiH_ICF3_vfb_backward20240611170935/Frg2.input
 using default PutDataFrgm: nothing
 calling putenv with: QCSCRATCH=/data/scratch/Me3SiH_ICF3_vfb_backward20240611170935/ 
 Spawning Job For Fragment 1
 Done Job For Fragment 1
 calling putenv with: QCSCRATCH=/data/scratch 
 calling putenv with: QCTHREADS=16 
 Time for running child jobs:  CPU 2.08 s  wall 32.31 s

 -----------------------------------------------------------------------
  General SCF calculation program by
  Eric Jon Sundstrom, Paul Horn, Yuezhi Mao, Dmitri Zuev, Alec White,
  David Stuck, Shaama M.S., Shane Yost, Joonho Lee, David Small,
  Daniel Levine, Susi Lehtola, Hugh Burton, Evgeny Epifanovsky,
  Bang C. Huynh
 -----------------------------------------------------------------------
Performing Restricted Closed Shell SCFMI
Doing General SCFMI
 Exchange:     0.1670 Hartree-Fock + 1.0000 wB97X-V + LR-HF
 Correlation:  1.0000 wB97X-V
 Using Euler-Maclaurin-Lebedev (75,302) quadrature formula
 Nonlocal Correlation:  VV10 with C = 0.0100 and b = 6.00 and scale = 1.00000
 Grid used for NLC:  SG-1 standard quadrature
performing fock build before subrot guess so that all methods have access
Printing subrot_rss_gen Method Specification:
Occupied Subspace Method is 0
Virtual Subspace Method is 0
Energy prior to optimization (guess energy) = -1044.581625654359
Begin Timing: Total SCF Calculation
begin iterations for algorithm: DIIS         
the SCF tolerance is set to 1.00e-09
    1   -1044.5816256544      1.17e-04     00000 
    2   -1044.5824040459      4.39e-05     00000 
    3   -1044.5824934544      2.10e-05     00000 
    4   -1044.5825104796      9.42e-06     00000 
    5   -1044.5825131602      5.46e-06     00000 
    6   -1044.5825139103      1.88e-06     00000 
    7   -1044.5825139847      7.22e-07     00000 
    8   -1044.5825139954      1.99e-07     00000 
    9   -1044.5825139965      9.66e-08     00000 
   10   -1044.5825139967      4.86e-08     00000 
   11   -1044.5825139968      1.67e-08     00000 
   12   -1044.5825139968      5.84e-09     00000 
   13   -1044.5825139968      1.89e-09     00000 
   14   -1044.5825139968      5.12e-10     00000 Convergence criterion met
write pseudocanon occs and virts to disk
write pseudocanon orbital energies to disk
Timing for Total SCF: 63.00s (wall), 948.46s (cpu)
SCFMI Energy   -1044.5825139968
<S^2>            0.00000
====================================================================
           Variational forward-backward (VFB) CT analysis           
 M. Loipersberger, Y. Mao and M. Head-Gordon, JCTC, 16, 1073 (2020) 
====================================================================
Calculating stabilization due to the backward (2->1) CT
Requested donor fragment: 2
updated OccSS dimension
        21
        29
updated VirtSS dimension
          143
          238
Energy prior to optimization (guess energy) = -1044.582513996783
Begin Timing: Total SCF Calculation
begin iterations for algorithm: DIIS         
the SCF tolerance is set to 1.00e-09
    1   -1044.5825139968      1.75e-04     00000 
    2   -1044.5831708351      9.67e-06     00000 
    3   -1044.5831813880      1.63e-06     00000 
    4   -1044.5831817167      6.82e-07     00000 
    5   -1044.5831817446      2.42e-07     00000 
    6   -1044.5831817500      1.14e-07     00000 
    7   -1044.5831817514      4.45e-08     00000 
    8   -1044.5831817517      1.70e-08     00000 
    9   -1044.5831817517      3.54e-09     00000 
   10   -1044.5831817517      1.48e-09     00000 
   11   -1044.5831817517      3.92e-10     00000 Convergence criterion met
write pseudocanon occs and virts to disk
write pseudocanon orbital energies to disk
Timing for Total SCF: 45.00s (wall), 721.83s (cpu)
Energy of the one-side CT state:    -1044.5831817517
Stabilization due to one-side CT:    -1.7532 kJ/mol
<S^2>            0.00000
 Total energy in the final basis set =    -1044.5831817517
    ==================================================
        The end of Object-Oriented SCFman: SCFMI      
    ==================================================
 
 --------------------------------------------------------------
 
                    Orbital Energies (a.u.)
 --------------------------------------------------------------
 
 Alpha MOs
 -- Occupied --
-66.1281 -24.8371 -24.8371 -24.8371 -10.5895 -10.2710 -10.2702 -10.2702
 -6.9772  -5.3834  -5.0132  -4.9951  -4.9950  -3.7376  -3.7367  -3.7367
 -2.0658  -2.0602  -2.0601  -2.0451  -2.0450  -1.4670  -1.3708  -1.3707
 -0.8967  -0.8457  -0.8210  -0.8055  -0.8049  -0.7429  -0.7429  -0.6948
 -0.6153  -0.6152  -0.6009  -0.5772  -0.5772  -0.5526  -0.5348  -0.5220
 -0.5217  -0.5024  -0.5019  -0.4908  -0.4761  -0.4153  -0.4108  -0.4104
 -0.3890  -0.3887
 -- Virtual --
  0.0149   0.0682   0.0760   0.0803   0.0824   0.1039   0.1116   0.1120
  0.1374   0.1392   0.1480   0.1520   0.1529   0.1605   0.1688   0.1711
  0.1743   0.1796   0.1834   0.1921   0.1964   0.2025   0.2109   0.2126
  0.2131   0.2173   0.2250   0.2260   0.2398   0.2460   0.2529   0.2549
  0.2667   0.2723   0.2799   0.2909   0.2913   0.2995   0.3030   0.3047
  0.3186   0.3230   0.3283   0.3294   0.3342   0.3446   0.3540   0.3672
  0.3720   0.3766   0.3930   0.4006   0.4079   0.4106   0.4153   0.4185
  0.4240   0.4289   0.4354   0.4414   0.4472   0.4518   0.4520   0.4635
  0.4659   0.4717   0.4755   0.4760   0.4802   0.4846   0.4871   0.4929
  0.5157   0.5181   0.5258   0.5307   0.5377   0.5427   0.5478   0.5498
  0.5546   0.5599   0.5701   0.5714   0.5907   0.5912   0.6024   0.6085
  0.6129   0.6139   0.6240   0.6256   0.6356   0.6607   0.6679   0.6769
  0.6806   0.6837   0.7030   0.7069   0.7092   0.7288   0.7309   0.7398
  0.7478   0.7707   0.7708   0.7759   0.7765   0.8009   0.8228   0.8240
  0.8277   0.8443   0.8585   0.8760   0.8846   0.8871   0.9085   0.9102
  0.9283   0.9357   0.9491   0.9577   0.9695   0.9699   0.9885   1.0023
  1.0296   1.0298   1.0391   1.0536   1.0610   1.0779   1.0883   1.0915
  1.0930   1.1043   1.1140   1.1280   1.1524   1.1583   1.1751   1.1752
  1.1875   1.1925   1.2038   1.2403   1.2490   1.2692   1.2805   1.2843
  1.3225   1.3864   1.3947   1.4260   1.4542   1.6671   1.6851   1.6929
  1.7047   1.7213   1.7545   1.7766   1.7940   1.8045   1.8086   1.8130
  1.8161   1.8311   1.8349   1.8707   1.9232   1.9514   2.0094   2.0129
  2.0141   2.0234   2.0244   2.0260   2.0311   2.0580   2.0620   2.0839
  2.0996   2.1308   2.1427   2.1642   2.1858   2.1860   2.2021   2.2038
  2.2150   2.2283   2.2293   2.2364   2.2443   2.3346   2.3541   2.3783
  2.4107   2.4570   2.4809   2.4839   2.6106   2.6151   2.6164   2.6285
  2.6321   2.6455   2.9053   2.9078   2.9145   3.1838   3.1882   3.1890
  3.2197   3.2294   3.2460   3.3226   3.3880   3.3922   3.3924   3.4079
  3.4105   3.4495   3.4530   3.4551   3.5997   3.7600   3.7606   3.8378
  4.0711   4.0739  19.1313  19.2009  20.0941  56.6560
 --------------------------------------------------------------
 
          Ground-State Mulliken Net Atomic Charges

     Atom                 Charge (a.u.)
  ----------------------------------------
      1 C                     0.093640
      2 Si                   -0.478246
      3 C                     0.098246
      4 C                     0.093613
      5 H                     0.388214
      6 H                    -0.027814
      7 H                    -0.019141
      8 H                    -0.019137
      9 H                    -0.020525
     10 H                    -0.020544
     11 H                    -0.021348
     12 H                    -0.019083
     13 H                    -0.019187
     14 H                    -0.027794
     15 I                     0.303952
     16 C                     0.831541
     17 F                    -0.369555
     18 F                    -0.397309
     19 F                    -0.369522
  ----------------------------------------
  Sum of atomic charges =     0.000000

 -----------------------------------------------------------------
                    Cartesian Multipole Moments
 -----------------------------------------------------------------
    Charge (ESU x 10^10)
                 0.0000
    Dipole Moment (Debye)
         X       1.9009      Y      -0.0001      Z       0.1580
       Tot       1.9074
    Quadrupole Moments (Debye-Ang)
        XX     -81.9274     XY      -0.0006     YY     -84.1103
        XZ       0.9581     YZ      -0.0001     ZZ     -84.2566
    Octopole Moments (Debye-Ang^2)
       XXX     -72.1039    XXY       0.0078    XYY     -29.3177
       YYY       0.0275    XXZ       0.9848    XYZ      -0.0014
       YYZ      -8.6741    XZZ     -29.3719    YZZ       0.0082
       ZZZ     -11.6764
    Hexadecapole Moments (Debye-Ang^3)
      XXXX   -4225.0605   XXXY       0.0587   XXYY    -774.4711
      XYYY       0.0679   YYYY    -433.6463   XXXZ      36.5699
      XXYZ      -0.0202   XYYZ     -10.9390   YYYZ      -0.0027
      XXZZ    -762.3686   XYZZ       0.0094   YYZZ    -135.7009
      XZZZ       0.8677   YZZZ      -0.0079   ZZZZ    -368.3189
 -----------------------------------------------------------------
 Calculating analytic gradient of the SCF energy
 Gradient of SCF Energy
            1           2           3           4           5           6
    1  -0.0000430   0.0000575   0.0000511  -0.0000396  -0.0003531  -0.0000018
    2  -0.0000093   0.0000004  -0.0000008   0.0000077   0.0000004   0.0000095
    3  -0.0000320  -0.0002408   0.0000675  -0.0000291   0.0003945  -0.0000056
            7           8           9          10          11          12
    1   0.0000216  -0.0000057  -0.0000062  -0.0000058   0.0000257  -0.0000060
    2   0.0000223  -0.0000150  -0.0000131   0.0000132   0.0000001   0.0000143
    3  -0.0000163   0.0000266  -0.0000042  -0.0000044  -0.0000405   0.0000258
           13          14          15          16          17          18
    1   0.0000199  -0.0000022   0.0010735   0.0001684  -0.0003238  -0.0003073
    2  -0.0000204  -0.0000095   0.0000018  -0.0000022  -0.0000159   0.0000011
    3  -0.0000162  -0.0000068  -0.0002313  -0.0001677   0.0000792   0.0001197
           19
    1  -0.0003231
    2   0.0000154
    3   0.0000815
 Max gradient component =       1.073E-03
 RMS gradient           =       1.852E-04
 Gradient time:  CPU 195.16 s  wall 12.45 s
 Geometry Optimization Parameters
   NAtoms,    NIC,     NZ,  NCons,   NDum,   NFix, NCnnct, MaxDiis
       19     122       0       0       0       0       0       0

 Cartesian Hessian Update
 Hessian updated using BFGS update


** GEOMETRY OPTIMIZATION IN DELOCALIZED INTERNAL COORDINATES **
   Searching for a Minimum

   Optimization Cycle:   3

                       Coordinates (Angstroms)
     ATOM                X               Y               Z
      1  C         2.9665155115   -1.5487809290    1.0122755427
      2  Si        3.1905554908   -0.0001780405   -0.0369654494
      3  C         4.8748847857   -0.0005086055   -0.8798000393
      4  C         2.9673897529    1.5480783062    1.0129741016
      5  H         2.1313996700    0.0004019987   -1.1043715608
      6  H         3.0615017926   -2.4626775066    0.4040092834
      7  H         3.7264179411   -1.5958532032    1.8097692058
      8  H         1.9751672729   -1.5671889237    1.4935448086
      9  H         5.0030003333   -0.8904549093   -1.5166561770
     10  H         5.0035547768    0.8896192069   -1.5162906429
     11  H         5.6878495647   -0.0009148974   -0.1350976805
     12  H         1.9760205810    1.5668032410    1.4941918971
     13  H         3.7272662466    1.5944302031    1.8105298807
     14  H         3.0628725412    2.4621779141    0.4050876933
     15  I        -0.8413422956    0.0003084035   -0.3536677452
     16  C        -2.9094294411   -0.0002157811    0.2027604244
     17  F        -3.2042697262    1.0794650031    0.9266814672
     18  F        -3.6880828575   -0.0009838200   -0.8787804462
     19  F        -3.2034656207   -1.0794623617    0.9276548571
   Point Group: c1    Number of degrees of freedom:    51


   Energy is  -1044.583181752

 Hessian updated using BFGS update

 43 Hessian modes will be used to form the next step
  Hessian Eigenvalues:
     0.002000    0.002010    0.003188    0.003276    0.003331    0.005386
     0.035695    0.044516    0.054291    0.054315    0.054526    0.055016
     0.055037    0.055115    0.119975    0.144897    0.145463    0.147077
     0.148134    0.159841    0.160017    0.164732    0.168658    0.201851
     0.202045    0.205110    0.205152    0.205475    0.249996    0.250000
     0.262924    0.334029    0.334044    0.334071    0.334736    0.334741
     0.334782    0.334814    0.334992    0.335001    0.586380    0.586991
     0.587513

 Minimum search - taking simple RFO step
 Searching for Lamda that Minimizes Along All modes
 Value Taken    Lamda =  -0.00003591
 Step Taken.  Stepsize is  0.070807

                             Maximum     Tolerance    Cnvgd?
         Gradient           0.000687      0.000050      NO
         Displacement       0.040563      0.000050      NO
         Energy change     -0.000102      0.000000      NO


 New Cartesian Coordinates Obtained by Inverse Iteration

 Displacement from previous Coordinates is:  0.110193
 ----------------------------------------------------------------
             Standard Nuclear Orientation (Angstroms)
    I     Atom           X                Y                Z
 ----------------------------------------------------------------
    1      C       2.9691767595    -1.5487229470     1.0073918350
    2      Si      3.1983533533    -0.0003059372    -0.0412724100
    3      C       4.8869428943    -0.0004216267    -0.8752335920
    4      C       2.9696203368     1.5478303431     1.0078975524
    5      H       2.1437201233     0.0000119008    -1.1132002872
    6      H       3.0705519952    -2.4629063515     0.4005686197
    7      H       3.7222843652    -1.5942664956     1.8113736317
    8      H       1.9737958469    -1.5684096216     1.4802565883
    9      H       5.0188659622    -0.8903591705    -1.5113216703
   10      H       5.0191323002     0.8896496156    -1.5110785432
   11      H       5.6956458603    -0.0006453843    -0.1259070209
   12      H       1.9742440097     1.5676443071     1.4807682189
   13      H       3.7227376238     1.5928764598     1.8118981157
   14      H       3.0712639704     2.4621931416     0.4013899618
   15      I      -0.8631075427     0.0002444322    -0.3503562338
   16      C      -2.9263159951    -0.0000373316     0.2091581087
   17      F      -3.2172587285     1.0800818893     0.9336292099
   18      F      -3.7050019169    -0.0003956102    -0.8721510797
   19      F      -3.2168448978    -1.0799963145     0.9340384154
 ----------------------------------------------------------------
 Molecular Point Group                 C1    NOp =  1
 Largest Abelian Subgroup              C1    NOp =  1
 Nuclear Repulsion Energy =         689.38600005 hartrees
 There are       50 alpha and       50 beta electrons
 Applying Cartesian multipole field
    Component          Value
    ---------          -----
     (2,0,0)        1.00000E-12
     (0,2,0)        2.00000E-11
     (0,0,2)       -3.00000E-11
 Nucleus-field energy     =     0.0000000021 hartrees
 Requested basis set is def2-SVPD
 There are 122 shells and 288 basis functions
 A cutoff of  1.0D-14 yielded   6505 shell pairs
 There are     36317 function pairs (     41285 Cartesian)
 Requested basis set is def2-SVPD
 Compound shells will be simplified
 There are 122 shells and 288 basis functions
 A cutoff of  1.0D-14 yielded   6505 shell pairs
 There are     36317 function pairs (     41285 Cartesian)
 Smallest overlap matrix eigenvalue = 1.53E-04
 Attempting to make child job directory: /data/scratch/Me3SiH_ICF3_vfb_backward20240611170935//Frg1/
 Failed to make child job directory:     /data/scratch/Me3SiH_ICF3_vfb_backward20240611170935//Frg1/
 Attempting to make child job directory: /data/scratch/Me3SiH_ICF3_vfb_backward20240611170935//Frg2/
 Failed to make child job directory:     /data/scratch/Me3SiH_ICF3_vfb_backward20240611170935//Frg2/
 Creating input file /data/scratch/Me3SiH_ICF3_vfb_backward20240611170935/Frg1.input
 using default PutDataFrgm: nothing
 calling putenv with: QCSCRATCH=/data/scratch/Me3SiH_ICF3_vfb_backward20240611170935/ 
 Spawning Job For Fragment 0
 Done Job For Fragment 0
 calling putenv with: QCSCRATCH=/data/scratch 
 calling putenv with: QCTHREADS=16 
 Creating input file /data/scratch/Me3SiH_ICF3_vfb_backward20240611170935/Frg2.input
 using default PutDataFrgm: nothing
 calling putenv with: QCSCRATCH=/data/scratch/Me3SiH_ICF3_vfb_backward20240611170935/ 
 Spawning Job For Fragment 1
 Done Job For Fragment 1
 calling putenv with: QCSCRATCH=/data/scratch 
 calling putenv with: QCTHREADS=16 
 Time for running child jobs:  CPU 2.34 s  wall 29.08 s

 -----------------------------------------------------------------------
  General SCF calculation program by
  Eric Jon Sundstrom, Paul Horn, Yuezhi Mao, Dmitri Zuev, Alec White,
  David Stuck, Shaama M.S., Shane Yost, Joonho Lee, David Small,
  Daniel Levine, Susi Lehtola, Hugh Burton, Evgeny Epifanovsky,
  Bang C. Huynh
 -----------------------------------------------------------------------
Performing Restricted Closed Shell SCFMI
Doing General SCFMI
 Exchange:     0.1670 Hartree-Fock + 1.0000 wB97X-V + LR-HF
 Correlation:  1.0000 wB97X-V
 Using Euler-Maclaurin-Lebedev (75,302) quadrature formula
 Nonlocal Correlation:  VV10 with C = 0.0100 and b = 6.00 and scale = 1.00000
 Grid used for NLC:  SG-1 standard quadrature
performing fock build before subrot guess so that all methods have access
Printing subrot_rss_gen Method Specification:
Occupied Subspace Method is 0
Virtual Subspace Method is 0
Energy prior to optimization (guess energy) = -1044.581732590228
Begin Timing: Total SCF Calculation
begin iterations for algorithm: DIIS         
the SCF tolerance is set to 1.00e-09
    1   -1044.5817325902      1.13e-04     00000 
    2   -1044.5824570411      4.26e-05     00000 
    3   -1044.5825405744      2.03e-05     00000 
    4   -1044.5825564591      8.97e-06     00000 
    5   -1044.5825588921      5.17e-06     00000 
    6   -1044.5825595569      1.73e-06     00000 
    7   -1044.5825596212      6.60e-07     00000 
    8   -1044.5825596303      1.75e-07     00000 
    9   -1044.5825596312      8.43e-08     00000 
   10   -1044.5825596313      4.19e-08     00000 
   11   -1044.5825596314      1.43e-08     00000 
   12   -1044.5825596314      4.98e-09     00000 
   13   -1044.5825596314      1.60e-09     00000 
   14   -1044.5825596314      4.28e-10     00000 Convergence criterion met
write pseudocanon occs and virts to disk
write pseudocanon orbital energies to disk
Timing for Total SCF: 58.00s (wall), 924.77s (cpu)
SCFMI Energy   -1044.5825596314
<S^2>            0.00000
====================================================================
           Variational forward-backward (VFB) CT analysis           
 M. Loipersberger, Y. Mao and M. Head-Gordon, JCTC, 16, 1073 (2020) 
====================================================================
Calculating stabilization due to the backward (2->1) CT
Requested donor fragment: 2
updated OccSS dimension
        21
        29
updated VirtSS dimension
          143
          238
Energy prior to optimization (guess energy) = -1044.582559631394
Begin Timing: Total SCF Calculation
begin iterations for algorithm: DIIS         
the SCF tolerance is set to 1.00e-09
    1   -1044.5825596314      1.73e-04     00000 
    2   -1044.5831891581      9.35e-06     00000 
    3   -1044.5831989073      1.55e-06     00000 
    4   -1044.5831991998      6.61e-07     00000 
    5   -1044.5831992254      2.30e-07     00000 
    6   -1044.5831992301      1.06e-07     00000 
    7   -1044.5831992312      4.06e-08     00000 
    8   -1044.5831992315      1.54e-08     00000 
    9   -1044.5831992315      3.22e-09     00000 
   10   -1044.5831992315      1.35e-09     00000 
   11   -1044.5831992315      3.43e-10     00000 Convergence criterion met
write pseudocanon occs and virts to disk
write pseudocanon orbital energies to disk
Timing for Total SCF: 44.00s (wall), 713.23s (cpu)
Energy of the one-side CT state:    -1044.5831992315
Stabilization due to one-side CT:    -1.6793 kJ/mol
<S^2>            0.00000
 Total energy in the final basis set =    -1044.5831992315
    ==================================================
        The end of Object-Oriented SCFman: SCFMI      
    ==================================================
 
 --------------------------------------------------------------
 
                    Orbital Energies (a.u.)
 --------------------------------------------------------------
 
 Alpha MOs
 -- Occupied --
-66.1279 -24.8375 -24.8375 -24.8374 -10.5897 -10.2709 -10.2701 -10.2700
 -6.9771  -5.3832  -5.0130  -4.9950  -4.9949  -3.7374  -3.7365  -3.7365
 -2.0657  -2.0600  -2.0600  -2.0450  -2.0449  -1.4673  -1.3712  -1.3712
 -0.8973  -0.8455  -0.8211  -0.8053  -0.8048  -0.7433  -0.7433  -0.6948
 -0.6156  -0.6156  -0.6006  -0.5778  -0.5777  -0.5530  -0.5346  -0.5219
 -0.5216  -0.5023  -0.5017  -0.4907  -0.4761  -0.4153  -0.4107  -0.4102
 -0.3890  -0.3887
 -- Virtual --
  0.0154   0.0684   0.0762   0.0803   0.0824   0.1039   0.1117   0.1121
  0.1377   0.1391   0.1479   0.1522   0.1527   0.1603   0.1686   0.1712
  0.1743   0.1799   0.1830   0.1922   0.1967   0.2026   0.2109   0.2124
  0.2131   0.2171   0.2250   0.2260   0.2395   0.2461   0.2525   0.2546
  0.2663   0.2721   0.2800   0.2909   0.2914   0.2995   0.3030   0.3045
  0.3184   0.3228   0.3280   0.3287   0.3337   0.3446   0.3537   0.3672
  0.3715   0.3779   0.3930   0.4007   0.4075   0.4105   0.4153   0.4185
  0.4229   0.4289   0.4352   0.4413   0.4471   0.4515   0.4517   0.4634
  0.4658   0.4712   0.4757   0.4758   0.4806   0.4845   0.4867   0.4927
  0.5160   0.5179   0.5254   0.5307   0.5380   0.5428   0.5476   0.5498
  0.5538   0.5597   0.5701   0.5715   0.5911   0.5913   0.6027   0.6085
  0.6129   0.6138   0.6230   0.6254   0.6356   0.6604   0.6684   0.6758
  0.6805   0.6830   0.7023   0.7061   0.7087   0.7291   0.7307   0.7393
  0.7468   0.7701   0.7706   0.7740   0.7764   0.8009   0.8221   0.8242
  0.8276   0.8452   0.8582   0.8760   0.8840   0.8869   0.9081   0.9101
  0.9278   0.9356   0.9483   0.9573   0.9694   0.9696   0.9884   1.0021
  1.0296   1.0297   1.0387   1.0534   1.0603   1.0780   1.0883   1.0916
  1.0926   1.1044   1.1136   1.1281   1.1522   1.1579   1.1747   1.1752
  1.1874   1.1919   1.2029   1.2383   1.2490   1.2690   1.2795   1.2844
  1.3216   1.3855   1.3945   1.4255   1.4537   1.6666   1.6850   1.6922
  1.7047   1.7215   1.7545   1.7768   1.7944   1.8038   1.8079   1.8133
  1.8156   1.8312   1.8336   1.8725   1.9232   1.9505   2.0099   2.0131
  2.0145   2.0235   2.0245   2.0259   2.0308   2.0578   2.0618   2.0835
  2.0995   2.1306   2.1428   2.1642   2.1860   2.1862   2.2021   2.2026
  2.2148   2.2274   2.2284   2.2366   2.2443   2.3343   2.3538   2.3780
  2.4102   2.4572   2.4811   2.4842   2.6106   2.6153   2.6164   2.6286
  2.6321   2.6456   2.9053   2.9077   2.9145   3.1837   3.1883   3.1891
  3.2199   3.2296   3.2461   3.3226   3.3878   3.3924   3.3926   3.4076
  3.4102   3.4493   3.4526   3.4547   3.5976   3.7599   3.7605   3.8391
  4.0705   4.0731  19.1327  19.2003  20.0923  56.6504
 --------------------------------------------------------------
 
          Ground-State Mulliken Net Atomic Charges

     Atom                 Charge (a.u.)
  ----------------------------------------
      1 C                     0.092996
      2 Si                   -0.476321
      3 C                     0.098922
      4 C                     0.092992
      5 H                     0.390372
      6 H                    -0.027798
      7 H                    -0.019770
      8 H                    -0.018742
      9 H                    -0.021122
     10 H                    -0.021134
     11 H                    -0.020788
     12 H                    -0.018736
     13 H                    -0.019765
     14 H                    -0.027807
     15 I                     0.299598
     16 C                     0.831614
     17 F                    -0.368913
     18 F                    -0.396704
     19 F                    -0.368892
  ----------------------------------------
  Sum of atomic charges =     0.000000

 -----------------------------------------------------------------
                    Cartesian Multipole Moments
 -----------------------------------------------------------------
    Charge (ESU x 10^10)
                 0.0000
    Dipole Moment (Debye)
         X       1.8680      Y      -0.0000      Z       0.1597
       Tot       1.8748
    Quadrupole Moments (Debye-Ang)
        XX     -81.9072     XY      -0.0005     YY     -84.1146
        XZ       0.9554     YZ      -0.0001     ZZ     -84.2667
    Octopole Moments (Debye-Ang^2)
       XXX     -70.5278    XXY       0.0073    XYY     -28.6663
       YYY       0.0276    XXZ       0.8559    XYZ      -0.0010
       YYZ      -8.8052    XZZ     -28.7254    YZZ       0.0080
       ZZZ     -12.0511
    Hexadecapole Moments (Debye-Ang^3)
      XXXX   -4254.4429   XXXY       0.1259   XXYY    -779.1746
      XYYY       0.1364   YYYY    -433.7154   XXXZ      38.2444
      XXYZ      -0.0105   XYYZ     -10.3016   YYYZ       0.0051
      XXZZ    -766.8611   XYZZ       0.0367   YYZZ    -135.5292
      XZZZ       3.0310   YZZZ      -0.0010   ZZZZ    -367.1642
 -----------------------------------------------------------------
 Calculating analytic gradient of the SCF energy
 Gradient of SCF Energy
            1           2           3           4           5           6
    1  -0.0000200   0.0002132   0.0000062  -0.0000194  -0.0002366   0.0000001
    2  -0.0000057   0.0000010   0.0000003   0.0000050  -0.0000005   0.0000024
    3  -0.0000054  -0.0003270   0.0000941  -0.0000065   0.0003838  -0.0000031
            7           8           9          10          11          12
    1   0.0000058  -0.0000047   0.0000001   0.0000007   0.0000086  -0.0000050
    2   0.0000041  -0.0000114  -0.0000069   0.0000067   0.0000000   0.0000113
    3  -0.0000041   0.0000096  -0.0000121  -0.0000122  -0.0000331   0.0000096
           13          14          15          16          17          18
    1   0.0000058  -0.0000001  -0.0006322  -0.0002223   0.0003158   0.0002683
    2  -0.0000045  -0.0000021   0.0000007   0.0000013   0.0001153  -0.0000008
    3  -0.0000043  -0.0000028   0.0001916  -0.0000473  -0.0000135  -0.0002040
           19
    1   0.0003156
    2  -0.0001163
    3  -0.0000132
 Max gradient component =       6.322E-04
 RMS gradient           =       1.448E-04
 Gradient time:  CPU 193.15 s  wall 12.34 s
 Geometry Optimization Parameters
   NAtoms,    NIC,     NZ,  NCons,   NDum,   NFix, NCnnct, MaxDiis
       19     122       0       0       0       0       0       0

 Cartesian Hessian Update
 Hessian updated using BFGS update


** GEOMETRY OPTIMIZATION IN DELOCALIZED INTERNAL COORDINATES **
   Searching for a Minimum

   Optimization Cycle:   4

                       Coordinates (Angstroms)
     ATOM                X               Y               Z
      1  C         2.9691767595   -1.5487229470    1.0073918350
      2  Si        3.1983533533   -0.0003059372   -0.0412724100
      3  C         4.8869428943   -0.0004216267   -0.8752335920
      4  C         2.9696203368    1.5478303431    1.0078975524
      5  H         2.1437201233    0.0000119008   -1.1132002872
      6  H         3.0705519952   -2.4629063515    0.4005686197
      7  H         3.7222843652   -1.5942664956    1.8113736317
      8  H         1.9737958469   -1.5684096216    1.4802565883
      9  H         5.0188659622   -0.8903591705   -1.5113216703
     10  H         5.0191323002    0.8896496156   -1.5110785432
     11  H         5.6956458603   -0.0006453843   -0.1259070209
     12  H         1.9742440097    1.5676443071    1.4807682189
     13  H         3.7227376238    1.5928764598    1.8118981157
     14  H         3.0712639704    2.4621931416    0.4013899618
     15  I        -0.8631075427    0.0002444322   -0.3503562338
     16  C        -2.9263159951   -0.0000373316    0.2091581087
     17  F        -3.2172587285    1.0800818893    0.9336292099
     18  F        -3.7050019169   -0.0003956102   -0.8721510797
     19  F        -3.2168448978   -1.0799963145    0.9340384154
   Point Group: c1    Number of degrees of freedom:    51


   Energy is  -1044.583199232

 Hessian updated using BFGS update

 44 Hessian modes will be used to form the next step
  Hessian Eigenvalues:
     0.002000    0.002010    0.002925    0.003276    0.004018    0.035695
     0.044581    0.044685    0.054281    0.054313    0.054513    0.055010
     0.055033    0.055115    0.133667    0.144897    0.145451    0.147077
     0.148140    0.156956    0.159993    0.160103    0.160689    0.165627
     0.200905    0.202045    0.205136    0.205152    0.205441    0.250000
     0.250001    0.334027    0.334039    0.334068    0.334735    0.334741
     0.334756    0.334783    0.334989    0.334992    0.374153    0.586260
     0.586991    0.587517

 Minimum search - taking simple RFO step
 Searching for Lamda that Minimizes Along All modes
 Value Taken    Lamda =  -0.00001299
 Step Taken.  Stepsize is  0.036569

                             Maximum     Tolerance    Cnvgd?
         Gradient           0.000849      0.000050      NO
         Displacement       0.018891      0.000050      NO
         Energy change     -0.000017      0.000000      NO


 New Cartesian Coordinates Obtained by Inverse Iteration

 Displacement from previous Coordinates is:  0.080530
 ----------------------------------------------------------------
             Standard Nuclear Orientation (Angstroms)
    I     Atom           X                Y                Z
 ----------------------------------------------------------------
    1      C       2.9681111770    -1.5486909233     1.0023841288
    2      Si      3.2026046225    -0.0003994298    -0.0453621427
    3      C       4.8955969461    -0.0003619645    -0.8702588248
    4      C       2.9682420773     1.5476500184     1.0027697206
    5      H       2.1536238730    -0.0002453711    -1.1231842633
    6      H       3.0743785098    -2.4630511053     0.3966531206
    7      H       3.7155420599    -1.5934008455     1.8116876746
    8      H       1.9694552316    -1.5689650674     1.4682483417
    9      H       5.0312584601    -0.8903180655    -1.5055006399
   10      H       5.0313195530     0.8897098985    -1.5053243469
   11      H       5.6999378714    -0.0004650729    -0.1162114277
   12      H       1.9696005542     1.5678999005     1.4686656327
   13      H       3.7156959082     1.5920489323     1.8120714290
   14      H       3.0746002779     2.4621692353     0.3972966944
   15      I      -0.8695927447     0.0002094777    -0.3501305407
   16      C      -2.9327039536     0.0000920389     0.2154139395
   17      F      -3.2224754559     1.0797617798     0.9408336665
   18      F      -3.7150715113    -0.0000175272    -0.8631295436
   19      F      -3.2223171366    -1.0795606102     0.9409268017
 ----------------------------------------------------------------
 Molecular Point Group                 C1    NOp =  1
 Largest Abelian Subgroup              C1    NOp =  1
 Nuclear Repulsion Energy =         688.95229770 hartrees
 There are       50 alpha and       50 beta electrons
 Applying Cartesian multipole field
    Component          Value
    ---------          -----
     (2,0,0)        1.00000E-12
     (0,2,0)        2.00000E-11
     (0,0,2)       -3.00000E-11
 Nucleus-field energy     =     0.0000000021 hartrees
 Requested basis set is def2-SVPD
 There are 122 shells and 288 basis functions
 A cutoff of  1.0D-14 yielded   6505 shell pairs
 There are     36317 function pairs (     41285 Cartesian)
 Requested basis set is def2-SVPD
 Compound shells will be simplified
 There are 122 shells and 288 basis functions
 A cutoff of  1.0D-14 yielded   6505 shell pairs
 There are     36317 function pairs (     41285 Cartesian)
 Smallest overlap matrix eigenvalue = 1.54E-04
 Attempting to make child job directory: /data/scratch/Me3SiH_ICF3_vfb_backward20240611170935//Frg1/
 Failed to make child job directory:     /data/scratch/Me3SiH_ICF3_vfb_backward20240611170935//Frg1/
 Attempting to make child job directory: /data/scratch/Me3SiH_ICF3_vfb_backward20240611170935//Frg2/
 Failed to make child job directory:     /data/scratch/Me3SiH_ICF3_vfb_backward20240611170935//Frg2/
 Creating input file /data/scratch/Me3SiH_ICF3_vfb_backward20240611170935/Frg1.input
 using default PutDataFrgm: nothing
 calling putenv with: QCSCRATCH=/data/scratch/Me3SiH_ICF3_vfb_backward20240611170935/ 
 Spawning Job For Fragment 0
 Done Job For Fragment 0
 calling putenv with: QCSCRATCH=/data/scratch 
 calling putenv with: QCTHREADS=16 
 Creating input file /data/scratch/Me3SiH_ICF3_vfb_backward20240611170935/Frg2.input
 using default PutDataFrgm: nothing
 calling putenv with: QCSCRATCH=/data/scratch/Me3SiH_ICF3_vfb_backward20240611170935/ 
 Spawning Job For Fragment 1
 Done Job For Fragment 1
 calling putenv with: QCSCRATCH=/data/scratch 
 calling putenv with: QCTHREADS=16 
 Time for running child jobs:  CPU 2.33 s  wall 28.95 s

 -----------------------------------------------------------------------
  General SCF calculation program by
  Eric Jon Sundstrom, Paul Horn, Yuezhi Mao, Dmitri Zuev, Alec White,
  David Stuck, Shaama M.S., Shane Yost, Joonho Lee, David Small,
  Daniel Levine, Susi Lehtola, Hugh Burton, Evgeny Epifanovsky,
  Bang C. Huynh
 -----------------------------------------------------------------------
Performing Restricted Closed Shell SCFMI
Doing General SCFMI
 Exchange:     0.1670 Hartree-Fock + 1.0000 wB97X-V + LR-HF
 Correlation:  1.0000 wB97X-V
 Using Euler-Maclaurin-Lebedev (75,302) quadrature formula
 Nonlocal Correlation:  VV10 with C = 0.0100 and b = 6.00 and scale = 1.00000
 Grid used for NLC:  SG-1 standard quadrature
performing fock build before subrot guess so that all methods have access
Printing subrot_rss_gen Method Specification:
Occupied Subspace Method is 0
Virtual Subspace Method is 0
Energy prior to optimization (guess energy) = -1044.581775273921
Begin Timing: Total SCF Calculation
begin iterations for algorithm: DIIS         
the SCF tolerance is set to 1.00e-09
    1   -1044.5817752739      1.11e-04     00000 
    2   -1044.5824796806      4.21e-05     00000 
    3   -1044.5825609570      2.01e-05     00000 
    4   -1044.5825764963      8.84e-06     00000 
    5   -1044.5825788486      5.09e-06     00000 
    6   -1044.5825794870      1.68e-06     00000 
    7   -1044.5825795480      6.41e-07     00000 
    8   -1044.5825795567      1.69e-07     00000 
    9   -1044.5825795575      8.08e-08     00000 
   10   -1044.5825795577      4.00e-08     00000 
   11   -1044.5825795577      1.37e-08     00000 
   12   -1044.5825795577      4.74e-09     00000 
   13   -1044.5825795577      1.52e-09     00000 
   14   -1044.5825795577      4.06e-10     00000 Convergence criterion met
write pseudocanon occs and virts to disk
write pseudocanon orbital energies to disk
Timing for Total SCF: 58.00s (wall), 924.85s (cpu)
SCFMI Energy   -1044.5825795577
<S^2>            0.00000
[...]
 F         -0.000  0.000 -0.000   -0.000 -0.000  0.000    0.002 -0.000  0.003
 F         -0.000 -0.000  0.000    0.000  0.000 -0.000    0.001  0.004 -0.002
 TransDip  -0.000 -0.135 -0.000   -0.104 -0.000  0.108   -0.270  0.000 -0.153

 Mode:                28                     29                     30
 Frequency:       915.58                 925.14                1108.70
 Force Cnst:      0.6503                 0.6477                 9.5960
 Red. Mass:       1.3166                 1.2843                13.2498
 IR Active:          YES                    YES                    YES
 IR Intens:      136.047                211.882                636.291
 Raman Active:       YES                    YES                    YES
               X      Y      Z        X      Y      Z        X      Y      Z
 C          0.031  0.042  0.043    0.050 -0.005 -0.010    0.013  0.004 -0.001
 Si        -0.000 -0.081 -0.000   -0.054 -0.000  0.054   -0.010  0.000  0.001
 C         -0.000  0.052  0.000   -0.016  0.000 -0.073    0.004 -0.000  0.001
 C         -0.031  0.042 -0.043    0.050  0.005 -0.010    0.013 -0.004 -0.001
 H          0.000  0.814  0.000    0.624  0.000 -0.553    0.062  0.000 -0.092
 H         -0.004  0.182 -0.182   -0.085 -0.035  0.018   -0.024 -0.004  0.005
 H         -0.018 -0.188  0.062   -0.072 -0.043  0.087   -0.038 -0.040  0.038
 H         -0.034  0.015 -0.120   -0.001  0.192 -0.111    0.008  0.007 -0.006
 H         -0.148 -0.050  0.095    0.207 -0.019  0.013    0.003  0.004 -0.005
 H          0.148 -0.050 -0.095    0.207  0.019  0.013    0.003 -0.004 -0.005
 H         -0.000 -0.093 -0.000   -0.203 -0.000  0.123    0.017  0.000 -0.012
 H          0.034  0.015  0.120   -0.001 -0.192 -0.111    0.008 -0.007 -0.006
 H          0.018 -0.188 -0.062   -0.072  0.043  0.087   -0.038  0.040  0.038
 H          0.004  0.182  0.182   -0.085  0.035  0.018   -0.024  0.004  0.005
 I         -0.000 -0.000 -0.000   -0.000 -0.000  0.000   -0.010 -0.000  0.003
 C          0.000  0.001 -0.000   -0.008 -0.000  0.003    0.838  0.000 -0.247
 F         -0.000  0.000  0.000    0.001 -0.003 -0.002   -0.126  0.184  0.147
 F         -0.000 -0.000 -0.000    0.001 -0.000  0.002   -0.212  0.000 -0.158
 F          0.000  0.000 -0.000    0.001  0.003 -0.002   -0.126 -0.185  0.147
 TransDip   0.000 -0.374 -0.000   -0.386 -0.000  0.262    0.787  0.000 -0.182

 Mode:                31                     32                     33
 Frequency:      1202.37                1202.95                1272.01
 Force Cnst:     11.3140                11.3284                 1.2231
 Red. Mass:      13.2828                13.2868                 1.2830
 IR Active:          YES                    YES                    YES
 IR Intens:      234.747                236.349                 46.653
 Raman Active:       YES                    YES                    YES
               X      Y      Z        X      Y      Z        X      Y      Z
 C          0.001  0.003 -0.003   -0.002 -0.002  0.002   -0.015 -0.092  0.059
 Si         0.000 -0.000 -0.000    0.001 -0.000 -0.000    0.000  0.016 -0.000
 C          0.000 -0.000 -0.000   -0.000  0.000  0.000   -0.000 -0.004  0.000
 C         -0.001  0.003  0.003   -0.002  0.002  0.002    0.015 -0.092 -0.059
 H         -0.000  0.005 -0.000   -0.007 -0.000  0.007   -0.000 -0.020  0.000
 H         -0.006 -0.008  0.012    0.006  0.005 -0.008    0.078  0.196 -0.341
 H         -0.009 -0.013  0.006    0.011  0.010 -0.009    0.176  0.353 -0.092
 H          0.004 -0.013  0.006   -0.005  0.009 -0.007   -0.108  0.355 -0.164
 H          0.001  0.000 -0.001    0.001  0.000 -0.000    0.001  0.003 -0.009
 H         -0.001  0.000  0.001    0.001 -0.000 -0.000    0.000  0.002  0.008
 H          0.000  0.000  0.000   -0.000 -0.000 -0.000    0.001  0.016 -0.001
 H         -0.005 -0.013 -0.006   -0.005 -0.009 -0.007    0.108  0.354  0.163
 H          0.009 -0.013 -0.006    0.011 -0.010 -0.009   -0.175  0.352  0.092
 H          0.006 -0.008 -0.012    0.006 -0.005 -0.008   -0.078  0.195  0.340
 I         -0.000 -0.001 -0.000   -0.000  0.000 -0.001   -0.000 -0.000  0.000
 C          0.000  0.901  0.001    0.255 -0.001  0.865    0.000  0.003 -0.000
 F          0.077 -0.254 -0.144    0.029 -0.116 -0.132    0.000 -0.001 -0.000
 F         -0.000 -0.052 -0.000   -0.217  0.000 -0.274   -0.000 -0.000  0.000
 F         -0.077 -0.255  0.144    0.030  0.116 -0.132   -0.000 -0.001  0.000
 TransDip   0.000  0.491  0.000    0.144 -0.000  0.471    0.000  0.219 -0.000

 Mode:                34                     35                     36
 Frequency:      1272.29                1279.22                1425.18
 Force Cnst:      1.2251                 1.2036                 1.2589
 Red. Mass:       1.2845                 1.2483                 1.0520
 IR Active:          YES                    YES                    YES
 IR Intens:       42.086                 11.536                  0.125
 Raman Active:       YES                    YES                    YES
               X      Y      Z        X      Y      Z        X      Y      Z
 C         -0.012 -0.054  0.039    0.010  0.067 -0.047   -0.023  0.019  0.022
 Si         0.012 -0.000 -0.011    0.003  0.000  0.003   -0.000  0.000  0.000
 C         -0.114 -0.000  0.050   -0.084 -0.000  0.034   -0.000 -0.037 -0.000
 C         -0.012  0.054  0.039    0.010 -0.067 -0.047    0.023  0.019 -0.022
 H         -0.015  0.000  0.013    0.010 -0.000  0.012   -0.000 -0.001  0.000
 H          0.057  0.123 -0.206   -0.056 -0.160  0.271    0.154 -0.085  0.205
 H          0.119  0.205 -0.067   -0.143 -0.275  0.075    0.275 -0.205 -0.245
 H         -0.071  0.208 -0.105    0.088 -0.275  0.140   -0.132  0.045 -0.252
 H          0.409  0.170 -0.072    0.320  0.125 -0.050   -0.233  0.031 -0.145
 H          0.409 -0.170 -0.072    0.320 -0.125 -0.050    0.233  0.031  0.146
 H          0.303  0.000 -0.340    0.231  0.000 -0.261    0.000  0.421  0.000
 H         -0.072 -0.210 -0.106    0.088  0.276  0.140    0.132  0.045  0.251
 H          0.120 -0.206 -0.067   -0.143  0.275  0.075   -0.274 -0.205  0.245
 H          0.057 -0.124 -0.207   -0.056  0.160  0.272   -0.154 -0.085 -0.205
 I         -0.000  0.000  0.000    0.000  0.000 -0.000   -0.000 -0.000 -0.000
 C          0.002 -0.000 -0.003   -0.003 -0.000  0.003    0.000  0.000  0.000
 F         -0.000  0.001  0.001    0.001 -0.001 -0.001   -0.000 -0.000 -0.000
 F         -0.000  0.000  0.000    0.001  0.000 -0.000   -0.000 -0.000 -0.000
 F         -0.000 -0.001  0.001    0.001  0.001 -0.001    0.000 -0.000  0.000
 TransDip   0.142 -0.000 -0.152    0.080  0.000  0.074   -0.000  0.011  0.000

 Mode:                37                     38                     39
 Frequency:      1427.13                1427.72                1436.97
 Force Cnst:      1.2595                 1.2605                 1.2726
 Red. Mass:       1.0496                 1.0495                 1.0461
 IR Active:          YES                    YES                    YES
 IR Intens:        0.129                  0.323                  3.306
 Raman Active:       YES                    YES                    YES
               X      Y      Z        X      Y      Z        X      Y      Z
 C         -0.037 -0.007 -0.019    0.009  0.015  0.023   -0.032  0.017  0.016
 Si         0.000  0.000 -0.000   -0.000  0.000  0.001   -0.006  0.000  0.005
 C          0.000  0.015  0.000   -0.018  0.000 -0.043    0.008  0.000  0.014
 C          0.037 -0.007  0.019    0.009 -0.015  0.023   -0.032 -0.017  0.016
 H          0.000  0.010 -0.000   -0.007  0.000  0.007    0.022 -0.000 -0.020
 H          0.479  0.027  0.043   -0.187 -0.069  0.097    0.294 -0.092  0.240
 H         -0.045 -0.260 -0.015    0.187  0.030 -0.136    0.275 -0.294 -0.262
 H          0.068  0.328  0.228   -0.115 -0.160 -0.280   -0.120  0.145 -0.208
 H          0.106 -0.013  0.062    0.036 -0.291  0.393   -0.018  0.102 -0.141
 H         -0.106 -0.014 -0.063    0.035  0.291  0.393   -0.019 -0.102 -0.141
 H         -0.000 -0.188  0.000    0.170 -0.000 -0.211   -0.068 -0.001  0.084
 H         -0.067  0.328 -0.227   -0.115  0.161 -0.280   -0.119 -0.145 -0.207
 H          0.044 -0.260  0.015    0.187 -0.030 -0.136    0.275  0.294 -0.261
 H         -0.478  0.027 -0.044   -0.189  0.069  0.097    0.294  0.092  0.239
 I          0.000  0.000 -0.000   -0.000  0.000  0.000   -0.000 -0.000  0.000
 C         -0.000  0.000  0.000    0.001  0.000 -0.001    0.002  0.000 -0.001
 F          0.000 -0.000 -0.000   -0.000  0.000  0.000   -0.000  0.000  0.000
 F          0.000  0.000  0.000   -0.000  0.000 -0.000   -0.000 -0.000 -0.000
 F         -0.000 -0.000  0.000   -0.000 -0.000  0.000   -0.000 -0.000  0.000
 TransDip   0.000 -0.012  0.000   -0.018 -0.000 -0.002    0.020 -0.000 -0.055

 Mode:                40                     41                     42
 Frequency:      1437.24                1444.05                2184.51
 Force Cnst:      1.2732                 1.2827                 2.9215
 Red. Mass:       1.0462                 1.0440                 1.0391
 IR Active:          YES                    YES                    YES
 IR Intens:        2.282                  9.921                219.799
 Raman Active:       YES                    YES                    YES
               X      Y      Z        X      Y      Z        X      Y      Z
 C          0.004 -0.013 -0.022   -0.023 -0.010 -0.018   -0.001 -0.000 -0.000
 Si        -0.000 -0.008  0.000   -0.006  0.000 -0.007   -0.023  0.000 -0.025
 C          0.000 -0.045  0.000   -0.012  0.000 -0.032   -0.000  0.000 -0.001
 C         -0.004 -0.013  0.022   -0.023  0.010 -0.018   -0.001  0.000 -0.000
 H          0.000  0.030 -0.000   -0.006 -0.000 -0.004    0.666 -0.000  0.745
 H          0.045  0.074 -0.136    0.360  0.049 -0.021    0.001 -0.001 -0.004
 H         -0.219  0.057  0.176   -0.106 -0.173  0.052   -0.000  0.006 -0.006
 H          0.120  0.064  0.265    0.086  0.266  0.244   -0.003  0.002  0.000
 H         -0.324  0.040 -0.191    0.019 -0.237  0.319   -0.001 -0.003 -0.001
 H          0.324  0.039  0.190    0.019  0.237  0.319   -0.001  0.003 -0.001
 H         -0.000  0.561  0.000    0.146 -0.000 -0.176   -0.009 -0.000  0.002
 H         -0.121  0.064 -0.265    0.086 -0.266  0.244   -0.003 -0.002  0.000
 H          0.220  0.058 -0.177   -0.106  0.173  0.052   -0.000 -0.006 -0.006
 H         -0.044  0.074  0.137    0.360 -0.049 -0.021    0.001  0.001 -0.004
 I         -0.000  0.000  0.000    0.000 -0.000  0.000   -0.000 -0.000 -0.000
 C          0.000 -0.000 -0.000   -0.000  0.000  0.000    0.002  0.000 -0.000
 F          0.000  0.000 -0.000    0.000 -0.000 -0.000   -0.000  0.000  0.000
 F         -0.000  0.000 -0.000   -0.000 -0.000 -0.000   -0.000  0.000 -0.000
 F         -0.000  0.000  0.000    0.000  0.000 -0.000   -0.000 -0.000  0.000
 TransDip   0.000  0.048 -0.000    0.068 -0.000  0.075   -0.382  0.000 -0.282

 Mode:                43                     44                     45
 Frequency:      3046.60                3046.82                3048.19
 Force Cnst:      5.6711                 5.6726                 5.6771
 Red. Mass:       1.0370                 1.0371                 1.0370
 IR Active:          YES                    YES                    YES
 IR Intens:        2.585                  4.361                  4.450
 Raman Active:       YES                    YES                    YES
               X      Y      Z        X      Y      Z        X      Y      Z
 C         -0.004 -0.029  0.021   -0.004 -0.029  0.022   -0.000 -0.002  0.001
 Si         0.000  0.000 -0.001    0.000  0.001  0.000    0.001  0.000 -0.000
 C          0.003  0.000 -0.001   -0.000  0.000  0.000   -0.049 -0.000  0.017
 C         -0.004  0.029  0.021    0.004 -0.029 -0.022   -0.000  0.002  0.001
 H          0.000 -0.000  0.001   -0.000 -0.001 -0.000   -0.001 -0.000  0.000
 H         -0.047  0.325  0.224   -0.047  0.321  0.223   -0.004  0.024  0.017
 H         -0.279  0.011 -0.320   -0.282  0.011 -0.322   -0.020  0.001 -0.023
 H          0.367 -0.000 -0.150    0.371 -0.000 -0.151    0.023 -0.001 -0.009
 H         -0.006  0.033  0.023    0.001 -0.003 -0.003    0.072 -0.455 -0.317
 H         -0.006 -0.033  0.023   -0.001 -0.003  0.002    0.072  0.455 -0.316
 H         -0.028  0.000 -0.029    0.000  0.000  0.000    0.414 -0.000  0.443
 H          0.367  0.001 -0.150   -0.371 -0.001  0.151    0.023  0.001 -0.009
 H         -0.279 -0.011 -0.320    0.282  0.011  0.322   -0.020 -0.001 -0.023
 H         -0.047 -0.326  0.224    0.047  0.321 -0.223   -0.004 -0.024  0.017
 I         -0.000 -0.000 -0.000    0.000 -0.000 -0.000    0.000 -0.000  0.000
 C         -0.000 -0.000 -0.000   -0.000  0.000  0.000    0.000  0.000 -0.000
 F          0.000 -0.000 -0.000   -0.000  0.000  0.000   -0.000  0.000  0.000
 F          0.000 -0.000  0.000    0.000 -0.000  0.000   -0.000  0.000 -0.000
 F          0.000  0.000 -0.000    0.000  0.000 -0.000   -0.000 -0.000  0.000
 TransDip   0.007 -0.000  0.051    0.000 -0.067 -0.000   -0.064 -0.000  0.022

 Mode:                46                     47                     48
 Frequency:      3138.22                3138.91                3140.72
 Force Cnst:      6.3925                 6.3944                 6.4002
 Red. Mass:       1.1017                 1.1015                 1.1013
 IR Active:          YES                    YES                    YES
 IR Intens:        0.441                  8.752                 18.421
 Raman Active:       YES                    YES                    YES
               X      Y      Z        X      Y      Z        X      Y      Z
 C         -0.054 -0.015 -0.034   -0.044 -0.017 -0.034   -0.027 -0.004 -0.012
 Si        -0.000 -0.000 -0.000   -0.000  0.000 -0.000   -0.001  0.000 -0.001
 C          0.000  0.004  0.000    0.015 -0.000  0.038   -0.030  0.000 -0.076
 C          0.054 -0.015  0.034   -0.044  0.017 -0.034   -0.027  0.004 -0.012
 H          0.000 -0.001  0.000    0.002 -0.000  0.004    0.005 -0.000  0.005
 H         -0.038  0.203  0.130   -0.039  0.226  0.145   -0.012  0.053  0.033
 H          0.359 -0.027  0.424    0.325 -0.025  0.382    0.158 -0.013  0.189
 H          0.325  0.004 -0.147    0.245  0.002 -0.113    0.182  0.003 -0.080
 H          0.004 -0.023 -0.017    0.032 -0.157 -0.104   -0.063  0.313  0.208
 H         -0.004 -0.023  0.017    0.032  0.157 -0.104   -0.063 -0.313  0.208
 H         -0.000  0.001 -0.000   -0.243  0.000 -0.248    0.494 -0.000  0.498
 H         -0.325  0.004  0.147    0.246 -0.002 -0.113    0.182 -0.003 -0.080
 H         -0.358 -0.026 -0.423    0.325  0.025  0.383    0.158  0.012  0.189
 H          0.038  0.203 -0.129   -0.039 -0.226  0.145   -0.012 -0.053  0.033
 I         -0.000 -0.000  0.000   -0.000  0.000  0.000   -0.000  0.000  0.000
 C          0.000  0.000 -0.000    0.000  0.000 -0.000    0.000  0.000 -0.000
 F         -0.000  0.000  0.000   -0.000  0.000  0.000   -0.000  0.000  0.000
 F         -0.000 -0.000 -0.000   -0.000  0.000 -0.000   -0.000  0.000 -0.000
 F          0.000  0.000 -0.000   -0.000 -0.000  0.000   -0.000 -0.000  0.000
 TransDip  -0.000 -0.021 -0.000   -0.090  0.000 -0.030   -0.092  0.000 -0.102

 Mode:                49                     50                     51
 Frequency:      3143.11                3143.55                3145.32
 Force Cnst:      6.4129                 6.4138                 6.4218
 Red. Mass:       1.1018                 1.1016                 1.1017
 IR Active:          YES                    YES                    YES
 IR Intens:        2.960                 13.141                 10.364
 Raman Active:       YES                    YES                    YES
               X      Y      Z        X      Y      Z        X      Y      Z
 C          0.036 -0.034 -0.041   -0.039  0.034  0.040    0.004 -0.006 -0.008
 Si        -0.000 -0.000  0.000   -0.000  0.000  0.001    0.000 -0.001 -0.000
 C          0.000  0.016  0.000    0.004 -0.000  0.011   -0.000 -0.091 -0.000
 C         -0.036 -0.034  0.041   -0.039 -0.034  0.040   -0.004 -0.006  0.008
 H          0.000  0.001 -0.000    0.000 -0.000 -0.002    0.000  0.002  0.000
 H         -0.055  0.434  0.283    0.054 -0.426 -0.278   -0.011  0.085  0.055
 H          0.043 -0.008  0.037   -0.029  0.007 -0.020    0.020 -0.002  0.021
 H         -0.418 -0.014  0.172    0.441  0.015 -0.182   -0.056 -0.002  0.023
 H          0.018 -0.095 -0.068    0.010 -0.045 -0.031   -0.106  0.554  0.403
 H         -0.018 -0.094  0.068    0.010  0.046 -0.032    0.106  0.555 -0.402
 H         -0.000  0.002 -0.000   -0.066  0.000 -0.067    0.000 -0.015  0.000
 H          0.421 -0.014 -0.173    0.439 -0.015 -0.181    0.056 -0.002 -0.023
 H         -0.043 -0.008 -0.037   -0.029 -0.007 -0.019   -0.020 -0.002 -0.021
 H          0.056  0.436 -0.284    0.054  0.424 -0.276    0.011  0.085 -0.054
 I         -0.000 -0.000  0.000   -0.000  0.000  0.000    0.000 -0.000 -0.000
 C          0.000 -0.000 -0.000    0.000  0.000 -0.000   -0.000 -0.000  0.000
 F          0.000  0.000  0.000   -0.000  0.000  0.000   -0.000  0.000  0.000
 F         -0.000  0.000 -0.000   -0.000 -0.000 -0.000    0.000  0.000  0.000
 F         -0.000  0.000 -0.000   -0.000 -0.000  0.000    0.000  0.000 -0.000
 TransDip  -0.000 -0.055  0.000   -0.082  0.000  0.082    0.000 -0.103 -0.000

 STANDARD THERMODYNAMIC QUANTITIES AT   298.15 K  AND     1.00 ATM

   This Molecule has  0 Imaginary Frequencies
   Zero point vibrational energy:       83.505 kcal/mol

   Atom    1 Element C  Has Mass   12.00000
   Atom    2 Element Si Has Mass   27.97693
   Atom    3 Element C  Has Mass   12.00000
   Atom    4 Element C  Has Mass   12.00000
   Atom    5 Element H  Has Mass    1.00783
   Atom    6 Element H  Has Mass    1.00783
   Atom    7 Element H  Has Mass    1.00783
   Atom    8 Element H  Has Mass    1.00783
   Atom    9 Element H  Has Mass    1.00783
   Atom   10 Element H  Has Mass    1.00783
   Atom   11 Element H  Has Mass    1.00783
   Atom   12 Element H  Has Mass    1.00783
   Atom   13 Element H  Has Mass    1.00783
   Atom   14 Element H  Has Mass    1.00783
   Atom   15 Element I  Has Mass  126.90440
   Atom   16 Element C  Has Mass   12.00000
   Atom   17 Element F  Has Mass   18.99840
   Atom   18 Element F  Has Mass   18.99840
   Atom   19 Element F  Has Mass   18.99840
   Molecular Mass:   269.954830 amu
   Principal axes and moments of inertia in amu*Bohr^2:
                             1           2           3
    Eigenvalues --      854.27871  6615.08106  6658.90279
          X               1.00000     0.00000     0.00174
          Y               0.00000    -1.00000     0.00035
          Z              -0.00174     0.00035     1.00000
   Rotational Symmetry Number is   1
   The Molecule is an Asymmetric Top
   Translational Enthalpy:        0.889 kcal/mol
   Rotational Enthalpy:           0.889 kcal/mol
   Vibrational Enthalpy:         90.926 kcal/mol
   gas constant (RT):             0.592 kcal/mol
   Translational Entropy:        42.678  cal/mol.K
   Rotational Entropy:           31.998  cal/mol.K
   Vibrational Entropy:          59.075  cal/mol.K

   Total Enthalpy:               93.296 kcal/mol
   Total Entropy:               133.752  cal/mol.K

   Quasi-RRHO corrections using alpha = 4, and omega = 100 cm^-1
   QRRHO-Vib. Enthalpy:          88.949 kcal/mol
   QRRHO-Vib. Entropy:           48.056  cal/mol.K
   QRRHO-Total Enthalpy:         91.319 kcal/mol
   QRRHO-Total Entropy:         122.733  cal/mol.K
 Total job time:  15636.11s(wall), 201442.80s(cpu) 
 Tue Jun 11 21:58:24 2024

        *************************************************************
        *                                                           *
        *  Thank you very much for using Q-Chem.  Have a nice day.  *
        *                                                           *
        *************************************************************


