
Running Job 1 of 2 Me3SiH_BrCN_vfb_backward.in
qchem Me3SiH_BrCN_vfb_backward.in_2799940.0 /data/scratch/Me3SiH_BrCN_vfb_backward20240611170946/ 1
/opt/qchem/6.1/exe/qcprog.exe_s Me3SiH_BrCN_vfb_backward.in_2799940.0 /data/scratch/Me3SiH_BrCN_vfb_backward20240611170946/
                  Welcome to Q-Chem
     A Quantum Leap Into The Future Of Chemistry


 Q-Chem 6.1, Q-Chem, Inc., Pleasanton, CA (2023)

 E. Epifanovsky,  A. T. B. Gilbert,  Xintian Feng,  Joonho Lee,  Yuezhi Mao,  
 N. Mardirossian,  P. Pokhilko,  A. White,  M. Wormit,  M. P. Coons,  
 A. L. Dempwolff,  Zhengting Gan,  D. Hait,  P. R. Horn,  L. D. Jacobson,  
 I. Kaliman,  J. Kussmann,  A. W. Lange,  Ka Un Lao,  D. S. Levine,  Jie Liu,  
 S. C. McKenzie,  A. F. Morrison,  K. D. Nanda,  F. Plasser,  D. R. Rehn,  
 M. L. Vidal,  Zhi-Qiang You,  Ying Zhu,  B. Alam,  B. Albrecht,  
 A. Aldossary,  E. Alguire,  J. H. Andersen,  V. Athavale,  D. Barton,  
 K. Begam,  A. Behn,  N. Bellonzi,  Y. A. Bernard,  E. J. Berquist,  
 H. Burton,  A. Carreras,  K. Carter-Fenk,  Mathew Chow,  Romit Chakraborty,  
 Chandrima Chakravarty,  Junhan Chen,  A. D. Chien,  K. D. Closser,  
 V. Cofer-Shabica,  L. Cunha,  S. Dasgupta,  Jia Deng,  M. de Wergifosse,  
 M. Diedenhofen,  Hainam Do,  S. Ehlert,  Po-Tung Fang,  S. Fatehi,  
 Qingguo Feng,  T. Friedhoff,  Thomas Froitzheim,  B. Ganoe,  J. Gayvert,  
 Qinghui Ge,  G. Gidofalvi,  M. Gimferrer,  M. Goldey,  Montgomery Gray,  
 J. Gomes,  C. Gonzalez-Espinoza,  S. Gulania,  A. Gunina,  J. A. Gyamfi,  
 M. W. D. Hanson-Heine,  P. H. P. Harbach,  A. W. Hauser,  M. F. Herbst,  
 M. Hernandez Vera,  M. Hodecker,  Z. C. Holden,  S. Houck,  Xunkun Huang,  
 Kerwin Hui,  B. C. Huynh,  K. Ikeda,  M. Ivanov,  Hyunjun Ji,  Zuxin Jin,  
 Hanjie Jiang,  Subrata Jana,  B. Kaduk,  S. Kaehler,  R. Kang,  
 K. Khistyaev,  Jaehoon Kim,  Yongbin Kim,  P. Klunzinger,  Z. Koczor-Benda,  
 Joong Hoon Koh,  D. Kosenkov,  Saikiran Kotaru,  L. Koulias,  T. Kowalczyk,  
 C. M. Krauter,  K. Kue,  A. Kunitsa,  T. Kus,  A. Landau,  K. V. Lawler,  
 D. Lefrancois,  S. Lehtola,  Rain Li,  Shaozhi Li,  Yi-Pei Li,  
 Jiashu Liang,  M. Liebenthal,  Hung-Hsuan Lin,  You-Sheng Lin,  Fenglai Liu,  
 Kuan-Yu Liu,  Xiao Liu,  M. Loipersberger,  A. Luenser,  C. Malbon,  
 A. Manjanath,  P. Manohar,  E. Mansoor,  S. F. Manzer,  Shan-Ping Mao,  
 A. V. Marenich,  T. Markovich,  S. Mason,  F. Matz,  S. A. Maurer,  
 P. F. McLaughlin,  M. F. S. J. Menger,  J.-M. Mewes,  S. A. Mewes,  
 P. Morgante,  Mohammad Mostafanejad,  J. W. Mullinax,  K. J. Oosterbaan,  
 G. Paran,  V. Parravicini,  Alexander C. Paul,  Suranjan K. Paul,  
 F. Pavosevic,  Zheng Pei,  S. Prager,  E. I. Proynov,  E. Ramos,  B. Rana,  
 A. E. Rask,  A. Rettig,  R. M. Richard,  F. Rob,  E. Rossomme,  T. Scheele,  
 M. Scheurer,  M. Schneider,  P. E. Schneider,  Tim K. Schramm,  N. Sergueev,  
 S. M. Sharada,  M. Sharma,  Hengyuan Shen,  W. Skomorowski,  D. W. Small,  
 C. J. Stein,  Alistair J. Sterling,  Yingli Su,  Yu-Chuan Su,  
 E. J. Sundstrom,  J. Talbot,  Zhen Tao,  J. Thirman,  Hung-Yi Tsai,  
 T. Tsuchimochi,  N. M. Tubman,  C. Utku,  S. P. Veccham,  O. Vydrov,  
 J. Wenzel,  Jonathan Wong,  J. Witte,  A. Yamada,  Chou-Hsun Yang,  Kun Yao,  
 S. Yeganeh,  S. R. Yost,  A. Zech,  F. Zeller,  Igor Ying Zhang,  
 Xing Zhang,  Yu Zhang,  D. Zuev,  A. Aspuru-Guzik,  A. T. Bell,  
 N. A. Besley,  K. B. Bravaya,  B. R. Brooks,  D. Casanova,  Jeng-Da Chai,  
 Hsing-Ta Chen,  S. Coriani,  C. J. Cramer,  A. E. DePrince, III,  
 R. A. DiStasio Jr.,  A. Dreuw,  B. D. Dunietz,  T. R. Furlani,  
 W. A. Goddard III,  S. Grimme,  S. Hammes-Schiffer,  T. Head-Gordon,  
 W. J. Hehre,  Chao-Ping Hsu,  T.-C. Jagau,  Yousung Jung,  A. Klamt,  
 Jing Kong,  D. S. Lambrecht,  Xiangyuan Li,  WanZhen Liang,  N. J. Mayhall,  
 C. W. McCurdy,  J. B. Neaton,  T. Neudecker,  C. Ochsenfeld,  
 J. A. Parkhill,  R. Peverati,  V. A. Rassolov,  Haisheng Ren,  Yihan Shao,  
 L. V. Slipchenko,  R. P. Steele,  J. E. Subotnik,  A. J. W. Thom,  
 A. Tkatchenko,  D. G. Truhlar,  T. Van Voorhis,  Fan Wang,  
 T. A. Wesolowski,  K. B. Whaley,  H. L. Woodcock III,  P. M. Zimmerman,  
 S. Faraji,  P. M. W. Gill,  M. Head-Gordon,  J. M. Herbert,  A. I. Krylov

 Contributors to earlier versions of Q-Chem not listed above: 
 R. D. Adamson,  B. Austin,  R. Baer,  J. Baker,  G. J. O. Beran,  
 K. Brandhorst,  S. T. Brown,  E. F. C. Byrd,  Arup K. Chakraborty,  
 G. K. L. Chan,  Chun-Min Chang,  Yunqing Chen,  C.-L. Cheng,  
 Siu Hung Chien,  D. M. Chipman,  D. L. Crittenden,  H. Dachsel,  
 R. J. Doerksen,  A. D. Dutoi,  R. G. Edgar,  J. Fosso-Tande,  
 L. Fusti-Molnar,  D. Ghosh,  A. Ghysels,  A. Golubeva-Zadorozhnaya,  
 J. Gonthier,  M. S. Gordon,  S. R. Gwaltney,  G. Hawkins,  J. E. Herr,  
 A. Heyden,  S. Hirata,  E. G. Hohenstein,  G. Kedziora,  F. J. Keil,  
 C. Kelley,  Jihan Kim,  R. A. King,  R. Z. Khaliullin,  P. P. Korambath,  
 W. Kurlancheek,  A. Laurent,  A. M. Lee,  M. S. Lee,  S. V. Levchenko,  
 Ching Yeh Lin,  D. Liotard,  E. Livshits,  R. C. Lochan,  I. Lotan,  
 L. A. Martinez-Martinez,  P. E. Maslen,  N. Nair,  D. P. O'Neill,  
 D. Neuhauser,  E. Neuscamman,  C. M. Oana,  R. Olivares-Amaya,  R. Olson,  
 T. M. Perrine,  B. Peters,  P. A. Pieniazek,  A. Prociuk,  Y. M. Rhee,  
 J. Ritchie,  M. A. Rohrdanz,  E. Rosta,  N. J. Russ,  H. F. Schaefer III,  
 M. W. Schmidt,  N. E. Schultz,  S. Sharma,  N. Shenvi,  C. D. Sherrill,  
 A. C. Simmonett,  A. Sodt,  T. Stein,  D. Stuck,  K. S. Thanthiriwatte,  
 V. Vanovschi,  L. Vogt,  Tao Wang,  A. Warshel,  M. A. Watson,  
 C. F. Williams,  Q. Wu,  X. Xu,  Jun Yang,  W. Zhang,  Yan Zhao

   Please cite Q-Chem as follows:
  "Software for the frontiers of quantum chemistry:
   An overview of developments in the Q-Chem 5 package"
   J. Chem. Phys. 155, 084801 (2021)
   https://doi.org/10.1063/5.0055522 (open access)

 Q-Chem 6.1.1 for Intel X86 EM64T Linux

 Parts of Q-Chem use Armadillo 9.900.5 (Nocturnal Misbehaviour).
 http://arma.sourceforge.net/

 Q-Chem begins on Tue Jun 11 17:09:48 2024  

 Host: 
0

     Scratch files written to /data/scratch/Me3SiH_BrCN_vfb_backward20240611170946//
 Jan1824 |scratch|qcdevops|jenkins|workspace|build_RNUM -1
 Processing $rem in /opt/qchem/6.1/config/preferences:
 Processing $rem in /home/ymao/.qchemrc:

 Checking the input file for inconsistencies... 	...done.

--------------------------------------------------------------
User input:
--------------------------------------------------------------
$molecule
0 1
--
0 1
H    1.1494978093   0.0010746281   1.1885438814
Si   2.1797527184   0.0003866633   0.0884069113
C    3.8831281360   0.0017470612   0.8888589291
C    1.9261518830  -1.5489682632  -0.9523382356
C    1.9250789847   1.5475702264  -0.9553016271
H    4.0278080909   0.8925612005   1.5206066924
H    4.6748977285   0.0013165088   0.1216648839
H    4.0284499554  -0.8877789475   1.5222717202
H    2.0234915703  -2.4625023270  -0.3440378364
H    0.9290786907  -1.5614183875  -1.4211640326
H    2.6743094963  -1.6030064874  -1.7602892535
H    0.9280538528   1.5583617951  -1.4242718642
H    2.0216387339   2.4623328972  -0.3487258617
H    2.6732945480   1.6006478629  -1.7632623732
--
0 1
Br  -1.5398321693  -0.0002999281   0.3810664448
C   -3.2213463951  -0.0011389440  -0.2470382510
N   -4.3050953166  -0.0017313559  -0.6525843189
$end

$rem
JOBTYPE  OPT
GEN_SCFMAN  TRUE
VFB_CTA  BACKWARD
METHOD  WB97X-V
BASIS  DEF2-SVPD
UNRESTRICTED  FALSE
MAX_SCF_CYCLES  2000
THRESH  14
SCF_CONVERGENCE  9
MEM_TOTAL  8000
MEM_STATIC  2000
SCF_GUESS  FRAGMO
SYMMETRY  FALSE
SYM_IGNORE  FALSE
SCF_ALGORITHM  DIIS
BASIS_LIN_DEP_THRESH  6
IDERIV  1
SCFMI_MODE  0
XC_GRID  000075000302
NL_GRID  1
FD_MAT_VEC_PROD  FALSE
GEOM_OPT_TOL_GRADIENT  50
GEOM_OPT_TOL_DISPLACEMENT  50
GEOM_OPT_TOL_ENERGY  10
GEOM_OPT_DRIVER  OPTIMIZE
GEOM_OPT_MAX_CYCLES  200
$end

--------------------------------------------------------------
 ----------------------------------------------------------------
             Standard Nuclear Orientation (Angstroms)
    I     Atom           X                Y                Z
 ----------------------------------------------------------------
    1      H       1.1777693320    -0.0000921188     1.1782298810
    2      Si      2.1951667077     0.0000058669     0.0661914040
    3      C       3.9077315962     0.0002119226     0.8467902491
    4      C       1.9291008816    -1.5483131567    -0.9729821668
    5      C       1.9287625888     1.5482269177    -0.9730408246
    6      H       4.0599662772     0.8903994755     1.4776452873
    7      H       4.6905298870     0.0003120545     0.0704444486
    8      H       4.0601853316    -0.8899415533     1.4776399642
    9      H       2.0332778655    -2.4624397576    -0.3667078150
   10      H       0.9266424699    -1.5600873173    -1.4301977465
   11      H       2.6678030790    -1.6017721347    -1.7896252912
   12      H       0.9263563270     1.5596945631    -1.4303796863
   13      H       2.0325936705     2.4623979985    -0.3667743569
   14      H       2.6675492197     1.6018837457    -1.7895943076
   15      Br     -1.5207651431    -0.0000716249     0.4020668053
   16      C      -3.2094668639     0.0000770568    -0.2064500642
   17      N      -4.2978566534     0.0001219054    -0.5993716254
 ----------------------------------------------------------------
 Molecular Point Group                 C1    NOp =  1
 Largest Abelian Subgroup              C1    NOp =  1
 Nuclear Repulsion Energy =         533.22774695 hartrees
 There are       45 alpha and       45 beta electrons
 Requested basis set is def2-SVPD
 There are 105 shells and 245 basis functions

 Total QAlloc Memory Limit   8000 MB
 Mega-Array Size      1956 MB
 MEM_STATIC part      2000 MB

 A cutoff of  1.0D-14 yielded   5084 shell pairs
 There are     27676 function pairs (     31411 Cartesian)
 Smallest overlap matrix eigenvalue = 1.58E-04

 Scale SEOQF with 1.000000e-01/1.000000e-01/1.000000e-01

 Standard Electronic Orientation quadrupole field applied
 Nucleus-field energy     =     0.0000000193 hartrees
 Attempting to make child job directory: /data/scratch/Me3SiH_BrCN_vfb_backward20240611170946//Frg1/
 Attempting to make child job directory: /data/scratch/Me3SiH_BrCN_vfb_backward20240611170946//Frg2/
 Creating input file /data/scratch/Me3SiH_BrCN_vfb_backward20240611170946/Frg1.input
 using default PutDataFrgm: nothing
 calling putenv with: QCSCRATCH=/data/scratch/Me3SiH_BrCN_vfb_backward20240611170946/ 
 Spawning Job For Fragment 0
 Done Job For Fragment 0
 calling putenv with: QCSCRATCH=/data/scratch 
 calling putenv with: QCTHREADS=16 
 Creating input file /data/scratch/Me3SiH_BrCN_vfb_backward20240611170946/Frg2.input
 using default PutDataFrgm: nothing
 calling putenv with: QCSCRATCH=/data/scratch/Me3SiH_BrCN_vfb_backward20240611170946/ 
 Spawning Job For Fragment 1
 Done Job For Fragment 1
 calling putenv with: QCSCRATCH=/data/scratch 
 calling putenv with: QCTHREADS=16 
 Time for running child jobs:  CPU 2.27 s  wall 24.73 s

 -----------------------------------------------------------------------
  General SCF calculation program by
  Eric Jon Sundstrom, Paul Horn, Yuezhi Mao, Dmitri Zuev, Alec White,
  David Stuck, Shaama M.S., Shane Yost, Joonho Lee, David Small,
  Daniel Levine, Susi Lehtola, Hugh Burton, Evgeny Epifanovsky,
  Bang C. Huynh
 -----------------------------------------------------------------------
Performing Restricted Closed Shell SCFMI
Doing General SCFMI
 Exchange:     0.1670 Hartree-Fock + 1.0000 wB97X-V + LR-HF
 Correlation:  1.0000 wB97X-V
 Using Euler-Maclaurin-Lebedev (75,302) quadrature formula
 Nonlocal Correlation:  VV10 with C = 0.0100 and b = 6.00 and scale = 1.00000
 Grid used for NLC:  SG-1 standard quadrature
performing fock build before subrot guess so that all methods have access
 using 16 threads for integral computing
 -------------------------------------------------------
 OpenMP Integral computing Module                
 Release: version 1.0, May 2013, Q-Chem Inc. Pittsburgh 
 -------------------------------------------------------
Printing subrot_rss_gen Method Specification:
Occupied Subspace Method is 0
Virtual Subspace Method is 0
Energy prior to optimization (guess energy) = -3075.936868005197
Begin Timing: Total SCF Calculation
begin iterations for algorithm: DIIS         
the SCF tolerance is set to 1.00e-09
    1   -3075.9368680052      1.99e-04     00000 
    2   -3075.9378817268      7.60e-05     00000 
    3   -3075.9379901874      4.00e-05     00000 
    4   -3075.9380132042      1.98e-05     00000 
    5   -3075.9380161223      1.52e-05     00000 
    6   -3075.9380190459      5.26e-06     00000 
    7   -3075.9380194047      1.25e-06     00000 
    8   -3075.9380194333      3.81e-07     00000 
    9   -3075.9380194369      1.63e-07     00000 
   10   -3075.9380194375      6.70e-08     00000 
   11   -3075.9380194376      2.38e-08     00000 
   12   -3075.9380194376      8.46e-09     00000 
   13   -3075.9380194376      2.94e-09     00000 
   14   -3075.9380194376      1.08e-09     00000 
   15   -3075.9380194377      4.71e-10     00000 Convergence criterion met
write pseudocanon occs and virts to disk
write pseudocanon orbital energies to disk
Timing for Total SCF: 46.00s (wall), 738.31s (cpu)
SCFMI Energy   -3075.9380194377
<S^2>            0.00000
====================================================================
           Variational forward-backward (VFB) CT analysis           
 M. Loipersberger, Y. Mao and M. Head-Gordon, JCTC, 16, 1073 (2020) 
====================================================================
Calculating stabilization due to the backward (2->1) CT
Requested donor fragment: 2
updated OccSS dimension
        21
        24
updated VirtSS dimension
          143
          200
Energy prior to optimization (guess energy) = -3075.938019437650
Begin Timing: Total SCF Calculation
begin iterations for algorithm: DIIS         
the SCF tolerance is set to 1.00e-09
    1   -3075.9380194377      8.75e-04     00000 
    2   -3075.9390071576      1.26e-05     00000 
    3   -3075.9390205079      2.90e-06     00000 
    4   -3075.9390209999      1.72e-06     00000 
    5   -3075.9390210606      4.74e-07     00000 
    6   -3075.9390210676      2.22e-07     00000 
    7   -3075.9390210696      4.50e-08     00000 
    8   -3075.9390210698      1.56e-08     00000 
    9   -3075.9390210698      6.71e-09     00000 
   10   -3075.9390210698      2.66e-09     00000 
   11   -3075.9390210698      7.74e-10     00000 Convergence criterion met
write pseudocanon occs and virts to disk
write pseudocanon orbital energies to disk
Timing for Total SCF: 36.00s (wall), 547.14s (cpu)
Energy of the one-side CT state:    -3075.9390210698
Stabilization due to one-side CT:    -2.6298 kJ/mol
<S^2>            0.00000
 Total energy in the final basis set =    -3075.9390210698
    ==================================================
        The end of Object-Oriented SCFman: SCFMI      
    ==================================================
 
 --------------------------------------------------------------
 
                    Orbital Energies (a.u.)
 --------------------------------------------------------------
 
 Alpha MOs
 -- Occupied --
 -482.66702   -66.13365   -62.57291   -56.39638   -56.39154   -56.39152
  -14.44972   -10.37532   -10.27529   -10.27528   -10.27523    -8.86926
   -6.70579    -6.68869    -6.68864    -5.38888    -3.74317    -3.74220
   -3.74216    -2.82694    -2.82197    -2.82192    -2.80868    -2.80867
   -1.06250    -0.99029    -0.85077    -0.81018    -0.81017    -0.65735
   -0.60405    -0.53953    -0.52970    -0.52677    -0.52400    -0.52136
   -0.50659    -0.50646    -0.49746    -0.49577    -0.42445    -0.42441
   -0.42210    -0.41598    -0.41551
 -- Virtual --
    0.04535     0.06768     0.07816     0.08075     0.08659     0.10110
    0.10120     0.11563     0.12205     0.12634     0.14658     0.15013
    0.15378     0.16417     0.16639     0.17633     0.18447     0.18587
    0.19186     0.19884     0.20065     0.20516     0.21836     0.22448
    0.22928     0.24309     0.25192     0.26337     0.27202     0.28474
    0.28837     0.29986     0.30149     0.30627     0.31629     0.32147
    0.33871     0.34189     0.34868     0.35672     0.36823     0.38239
    0.38396     0.39084     0.39843     0.39863     0.40450     0.41118
    0.41140     0.42217     0.42245     0.43530     0.43902     0.44206
    0.44475     0.45474     0.47136     0.47284     0.47359     0.47674
    0.48122     0.49062     0.49614     0.49896     0.51205     0.52420
    0.52568     0.53562     0.54213     0.54651     0.54760     0.55976
    0.57085     0.57967     0.58676     0.59536     0.59544     0.60374
    0.60560     0.61431     0.61673     0.62400     0.63281     0.64498
    0.64716     0.65789     0.66722     0.66867     0.70142     0.71945
    0.72671     0.76855     0.77381     0.79983     0.81085     0.81523
    0.82582     0.83179     0.85229     0.89825     0.90531     0.91231
    0.91439     0.93044     0.96038     0.96091     0.98585     0.99373
    1.01952     1.02195     1.03690     1.04306     1.05786     1.06142
    1.07790     1.08289     1.09269     1.09362     1.11206     1.11417
    1.12402     1.16763     1.16895     1.18418     1.19098     1.24582
    1.25768     1.27387     1.27892     1.28087     1.30123     1.31324
    1.32777     1.35361     1.38862     1.39407     1.42100     1.43535
    1.48360     1.64573     1.68399     1.69742     1.71809     1.74887
    1.77107     1.78779     1.80817     1.81145     1.82482     1.84233
    1.84369     1.88329     1.88552     1.91722     1.94741     2.01695
    2.02021     2.02071     2.02367     2.05498     2.05744     2.08030
    2.09801     2.12783     2.13851     2.15996     2.19628     2.21032
    2.23156     2.24262     2.33340     2.45011     2.47764     2.47950
    2.53595     2.53746     2.60719     2.61081     2.61179     2.62412
    2.62795     2.64042     2.84872     2.89891     2.90365     2.91070
    2.96798     2.96920     3.17881     3.18397     3.18643     3.21571
    3.22518     3.24447     3.57457     3.63793     3.64288     3.72302
    3.75836     4.01181
 --------------------------------------------------------------
 
          Ground-State Mulliken Net Atomic Charges

     Atom                 Charge (a.u.)
  ----------------------------------------
      1 H                     0.320465
      2 Si                   -0.424032
      3 C                     0.100149
      4 C                     0.101246
      5 C                     0.101260
      6 H                    -0.018703
      7 H                    -0.021223
      8 H                    -0.018706
      9 H                    -0.028293
     10 H                    -0.028796
     11 H                    -0.017130
     12 H                    -0.028802
     13 H                    -0.028290
     14 H                    -0.017144
     15 Br                   -0.110768
     16 C                     0.284158
     17 N                    -0.165392
  ----------------------------------------
  Sum of atomic charges =     0.000000

 -----------------------------------------------------------------
                    Cartesian Multipole Moments
 -----------------------------------------------------------------
    Charge (ESU x 10^10)
                -0.0000
    Dipole Moment (Debye)
         X       3.9481      Y      -0.0001      Z       0.5619
       Tot       3.9879
    Quadrupole Moments (Debye-Ang)
        XX     -80.4382     XY       0.0007     YY     -64.4682
        XZ      -4.5173     YZ       0.0001     ZZ     -65.2745
    Octopole Moments (Debye-Ang^2)
       XXX      54.1421    XXY      -0.0046    XYY     -15.7555
       YYY      -0.0018    XXZ      18.7427    XYZ      -0.0014
       YYZ       7.7472    XZZ     -13.0324    YZZ      -0.0008
       ZZZ      12.3260
    Hexadecapole Moments (Debye-Ang^3)
      XXXX   -3234.6630   XXXY       0.0178   XXYY    -506.4812
      XYYY       0.0045   YYYY    -341.3117   XXXZ    -134.6317
      XXYZ      -0.0017   XYYZ       1.0369   YYYZ      -0.0006
      XXZZ    -505.9671   XYZZ       0.0024   YYZZ    -103.7024
      XZZZ     -28.1977   YZZZ      -0.0008   ZZZZ    -272.9512
 -----------------------------------------------------------------
 Calculating analytic gradient of the SCF energy
 Gradient of SCF Energy
            1           2           3           4           5           6
    1  -0.0018283   0.0002135  -0.0000228  -0.0001405  -0.0001396  -0.0000272
    2  -0.0000001   0.0000005  -0.0000003  -0.0000173   0.0000173  -0.0000390
    3   0.0003494  -0.0010002   0.0003511   0.0000337   0.0000338  -0.0000255
            7           8           9          10          11          12
    1  -0.0001297  -0.0000272  -0.0000200   0.0000614  -0.0000023   0.0000608
    2   0.0000001   0.0000391   0.0000035   0.0000182   0.0000434  -0.0000183
    3  -0.0001229  -0.0000256  -0.0000130   0.0000303   0.0000484   0.0000300
           13          14          15          16          17
    1  -0.0000204  -0.0000023   0.0028805  -0.0007368  -0.0001191
    2  -0.0000035  -0.0000437  -0.0000015   0.0000030  -0.0000016
    3  -0.0000130   0.0000486   0.0004580  -0.0001329  -0.0000503
 Max gradient component =       2.881E-03
 RMS gradient           =       5.205E-04
 Gradient time:  CPU 140.24 s  wall 9.48 s
 Geometry Optimization Parameters
   NAtoms,    NIC,     NZ,  NCons,   NDum,   NFix, NCnnct, MaxDiis
       17     109       0       0       0       0       0       0


** GEOMETRY OPTIMIZATION IN DELOCALIZED INTERNAL COORDINATES **
   Searching for a Minimum

   Optimization Cycle:   1

                       Coordinates (Angstroms)
     ATOM                X               Y               Z
      1  H         1.1777693320   -0.0000921188    1.1782298810
      2  Si        2.1951667077    0.0000058669    0.0661914040
      3  C         3.9077315962    0.0002119226    0.8467902491
      4  C         1.9291008816   -1.5483131567   -0.9729821668
      5  C         1.9287625888    1.5482269177   -0.9730408246
      6  H         4.0599662772    0.8903994755    1.4776452873
      7  H         4.6905298870    0.0003120545    0.0704444486
      8  H         4.0601853316   -0.8899415533    1.4776399642
      9  H         2.0332778655   -2.4624397576   -0.3667078150
     10  H         0.9266424699   -1.5600873173   -1.4301977465
     11  H         2.6678030790   -1.6017721347   -1.7896252912
     12  H         0.9263563270    1.5596945631   -1.4303796863
     13  H         2.0325936705    2.4623979985   -0.3667743569
     14  H         2.6675492197    1.6018837457   -1.7895943076
     15  Br       -1.5207651431   -0.0000716249    0.4020668053
     16  C        -3.2094668639    0.0000770568   -0.2064500642
     17  N        -4.2978566534    0.0001219054   -0.5993716254
   Point Group: c1    Number of degrees of freedom:    45


   Energy is  -3075.939021070


 Attempting to generate delocalized internal coordinates
 Initial Hessian constructed with Jon Baker's OPTIMIZE code

 45 Hessian modes will be used to form the next step
  Hessian Eigenvalues:
     0.002000    0.003241    0.003241    0.003443    0.017288    0.035668
     0.044568    0.044657    0.054115    0.054116    0.054534    0.055027
     0.055027    0.055215    0.144856    0.145495    0.160000    0.160000
     0.160000    0.160000    0.160000    0.160000    0.160000    0.160000
     0.160000    0.160000    0.165487    0.200000    0.200000    0.200000
     0.200000    0.205002    0.205003    0.205876    0.265149    0.334082
     0.334102    0.334102    0.334766    0.334767    0.334796    0.334796
     0.335026    0.335026    1.296818

 Minimum search - taking simple RFO step
 Searching for Lamda that Minimizes Along All modes
 Value Taken    Lamda =  -0.00024967
 Step Taken.  Stepsize is  0.115906

                             Maximum     Tolerance    Cnvgd?
         Gradient           0.001330      0.000050      NO
         Displacement       0.063972      0.000050      NO
         Energy change     *********      0.000000      NO


 New Cartesian Coordinates Obtained by Inverse Iteration

 Displacement from previous Coordinates is:  0.206074
 ----------------------------------------------------------------
             Standard Nuclear Orientation (Angstroms)
    I     Atom           X                Y                Z
 ----------------------------------------------------------------
    1      H       1.1858439952     0.0000719794     1.1749500345
    2      Si      2.2052912108     0.0000772374     0.0661756687
    3      C       3.9177797708     0.0001684500     0.8476526936
    4      C       1.9423246215    -1.5481297440    -0.9743316689
    5      C       1.9422175313     1.5481950381    -0.9744378757
    6      H       4.0694822717     0.8903156200     1.4788271874
    7      H       4.7022720249     0.0001843957     0.0730009495
    8      H       4.0695587307    -0.8899354801     1.4788695532
    9      H       2.0474706860    -2.4623392662    -0.3683161950
   10      H       0.9400839606    -1.5613151102    -1.4322497620
   11      H       2.6815754806    -1.6004674993    -1.7906348531
   12      H       0.9400208482     1.5612257679    -1.4324554475
   13      H       2.0471858093     2.4624521227    -0.3684633733
   14      H       2.6815422688     1.6005824905    -1.7906709531
   15      Br     -1.5755964457    -0.0001446394     0.3974071223
   16      C      -3.2648176572    -0.0002630393    -0.2045144442
   17      N      -4.3568885343    -0.0000644798    -0.5869244814
 ----------------------------------------------------------------
 Molecular Point Group                 C1    NOp =  1
 Largest Abelian Subgroup              C1    NOp =  1
 Nuclear Repulsion Energy =         530.03654799 hartrees
 There are       45 alpha and       45 beta electrons
 Applying Cartesian multipole field
    Component          Value
    ---------          -----
     (2,0,0)        1.00000E-11
     (0,2,0)        2.00000E-11
     (0,0,2)       -3.00000E-11
 Nucleus-field energy     =     0.0000000198 hartrees
 Requested basis set is def2-SVPD
 There are 105 shells and 245 basis functions
 A cutoff of  1.0D-14 yielded   5074 shell pairs
 There are     27608 function pairs (     31332 Cartesian)
 Smallest overlap matrix eigenvalue = 1.59E-04
 Attempting to make child job directory: /data/scratch/Me3SiH_BrCN_vfb_backward20240611170946//Frg1/
 Failed to make child job directory:     /data/scratch/Me3SiH_BrCN_vfb_backward20240611170946//Frg1/
 Attempting to make child job directory: /data/scratch/Me3SiH_BrCN_vfb_backward20240611170946//Frg2/
 Failed to make child job directory:     /data/scratch/Me3SiH_BrCN_vfb_backward20240611170946//Frg2/
 Creating input file /data/scratch/Me3SiH_BrCN_vfb_backward20240611170946/Frg1.input
 using default PutDataFrgm: nothing
 calling putenv with: QCSCRATCH=/data/scratch/Me3SiH_BrCN_vfb_backward20240611170946/ 
 Spawning Job For Fragment 0
 Done Job For Fragment 0
 calling putenv with: QCSCRATCH=/data/scratch 
 calling putenv with: QCTHREADS=16 
 Creating input file /data/scratch/Me3SiH_BrCN_vfb_backward20240611170946/Frg2.input
 using default PutDataFrgm: nothing
 calling putenv with: QCSCRATCH=/data/scratch/Me3SiH_BrCN_vfb_backward20240611170946/ 
 Spawning Job For Fragment 1
 Done Job For Fragment 1
 calling putenv with: QCSCRATCH=/data/scratch 
 calling putenv with: QCTHREADS=16 
 Time for running child jobs:  CPU 2.41 s  wall 28.21 s

 -----------------------------------------------------------------------
  General SCF calculation program by
  Eric Jon Sundstrom, Paul Horn, Yuezhi Mao, Dmitri Zuev, Alec White,
  David Stuck, Shaama M.S., Shane Yost, Joonho Lee, David Small,
  Daniel Levine, Susi Lehtola, Hugh Burton, Evgeny Epifanovsky,
  Bang C. Huynh
 -----------------------------------------------------------------------
Performing Restricted Closed Shell SCFMI
Doing General SCFMI
 Exchange:     0.1670 Hartree-Fock + 1.0000 wB97X-V + LR-HF
 Correlation:  1.0000 wB97X-V
 Using Euler-Maclaurin-Lebedev (75,302) quadrature formula
 Nonlocal Correlation:  VV10 with C = 0.0100 and b = 6.00 and scale = 1.00000
 Grid used for NLC:  SG-1 standard quadrature
performing fock build before subrot guess so that all methods have access
Printing subrot_rss_gen Method Specification:
Occupied Subspace Method is 0
Virtual Subspace Method is 0
Energy prior to optimization (guess energy) = -3075.937261899768
Begin Timing: Total SCF Calculation
begin iterations for algorithm: DIIS         
the SCF tolerance is set to 1.00e-09
    1   -3075.9372618998      1.86e-04     00000 
    2   -3075.9381597932      7.02e-05     00000 
    3   -3075.9382564390      3.62e-05     00000 
    4   -3075.9382765497      1.73e-05     00000 
    5   -3075.9382790571      1.31e-05     00000 
    6   -3075.9382812850      4.54e-06     00000 
    7   -3075.9382815664      1.05e-06     00000 
    8   -3075.9382815871      3.00e-07     00000 
    9   -3075.9382815892      1.23e-07     00000 
   10   -3075.9382815896      4.79e-08     00000 
   11   -3075.9382815896      1.70e-08     00000 
   12   -3075.9382815896      5.85e-09     00000 
   13   -3075.9382815896      1.98e-09     00000 
   14   -3075.9382815896      6.78e-10     00000 Convergence criterion met
write pseudocanon occs and virts to disk
write pseudocanon orbital energies to disk
Timing for Total SCF: 45.00s (wall), 696.63s (cpu)
SCFMI Energy   -3075.9382815896
<S^2>            0.00000
====================================================================
           Variational forward-backward (VFB) CT analysis           
 M. Loipersberger, Y. Mao and M. Head-Gordon, JCTC, 16, 1073 (2020) 
====================================================================
Calculating stabilization due to the backward (2->1) CT
Requested donor fragment: 2
updated OccSS dimension
        21
        24
updated VirtSS dimension
          143
          200
Energy prior to optimization (guess energy) = -3075.938281589638
Begin Timing: Total SCF Calculation
begin iterations for algorithm: DIIS         
the SCF tolerance is set to 1.00e-09
    1   -3075.9382815896      8.50e-04     00000 
    2   -3075.9391959372      1.19e-05     00000 
    3   -3075.9392079170      2.73e-06     00000 
    4   -3075.9392083476      1.63e-06     00000 
    5   -3075.9392084011      4.72e-07     00000 
    6   -3075.9392084081      1.99e-07     00000 
    7   -3075.9392084097      3.92e-08     00000 
    8   -3075.9392084098      1.25e-08     00000 
    9   -3075.9392084098      5.23e-09     00000 
   10   -3075.9392084099      1.99e-09     00000 
   11   -3075.9392084098      5.91e-10     00000 Convergence criterion met
write pseudocanon occs and virts to disk
write pseudocanon orbital energies to disk
Timing for Total SCF: 33.00s (wall), 533.53s (cpu)
Energy of the one-side CT state:    -3075.9392084098
Stabilization due to one-side CT:    -2.4334 kJ/mol
<S^2>            0.00000
 Total energy in the final basis set =    -3075.9392084098
    ==================================================
        The end of Object-Oriented SCFman: SCFMI      
    ==================================================
 
 --------------------------------------------------------------
 
                    Orbital Energies (a.u.)
 --------------------------------------------------------------
 
 Alpha MOs
 -- Occupied --
 -482.66718   -66.13334   -62.57314   -56.39659   -56.39177   -56.39175
  -14.44988   -10.37556   -10.27511   -10.27509   -10.27505    -8.86954
   -6.70604    -6.68899    -6.68894    -5.38858    -3.74286    -3.74191
   -3.74187    -2.82720    -2.82223    -2.82219    -2.80899    -2.80897
   -1.06285    -0.99073    -0.85049    -0.80992    -0.80992    -0.65714
   -0.60415    -0.53922    -0.52933    -0.52658    -0.52431    -0.52188
   -0.50637    -0.50623    -0.49763    -0.49554    -0.42459    -0.42457
   -0.42205    -0.41569    -0.41526
 -- Virtual --
    0.04467     0.06819     0.07823     0.08056     0.08658     0.10114
    0.10124     0.11510     0.12209     0.12619     0.14663     0.15019
    0.15342     0.16420     0.16658     0.17601     0.18397     0.18576
    0.19166     0.19882     0.20064     0.20534     0.21848     0.22415
    0.22801     0.24154     0.25042     0.26273     0.27052     0.28459
    0.28829     0.29911     0.30139     0.30619     0.31557     0.32083
    0.33828     0.34188     0.34852     0.35572     0.36872     0.38204
    0.38401     0.39048     0.39757     0.39929     0.40438     0.41055
    0.41057     0.42239     0.42257     0.43534     0.43849     0.44057
    0.44524     0.45577     0.47144     0.47254     0.47385     0.47523
    0.48056     0.49014     0.49495     0.49839     0.51222     0.52331
    0.52581     0.53369     0.54170     0.54682     0.54776     0.55777
    0.57227     0.57840     0.58687     0.59486     0.59560     0.60369
    0.60436     0.61443     0.61787     0.62731     0.63284     0.64463
    0.64687     0.65691     0.66563     0.66936     0.69981     0.71982
    0.72537     0.76723     0.77268     0.79473     0.80971     0.81138
    0.82462     0.82762     0.84914     0.89667     0.90540     0.90809
    0.91098     0.92756     0.95944     0.96061     0.98596     0.99419
    1.02132     1.02184     1.03705     1.04237     1.05691     1.06037
    1.07539     1.08291     1.09258     1.09264     1.10676     1.11055
    1.12781     1.16687     1.16723     1.18311     1.19064     1.24567
    1.25355     1.27170     1.27856     1.27873     1.29554     1.31366
    1.32711     1.35158     1.38676     1.39361     1.42022     1.43326
    1.48358     1.64489     1.68364     1.69771     1.71747     1.74902
    1.77123     1.78817     1.80851     1.81100     1.82437     1.84182
    1.84328     1.88264     1.88506     1.91713     1.94623     2.01723
    2.02025     2.02075     2.02321     2.05489     2.05692     2.07925
    2.09745     2.12704     2.13834     2.15921     2.19634     2.20992
    2.23125     2.24223     2.33338     2.45053     2.47777     2.47966
    2.53565     2.53695     2.60721     2.61072     2.61153     2.62427
    2.62783     2.64036     2.84903     2.89880     2.90325     2.91038
    2.96801     2.96909     3.17866     3.18389     3.18602     3.21581
    3.22530     3.24425     3.57387     3.63600     3.64112     3.72198
    3.75585     4.00804
 --------------------------------------------------------------
 
          Ground-State Mulliken Net Atomic Charges

     Atom                 Charge (a.u.)
  ----------------------------------------
      1 H                     0.329898
      2 Si                   -0.424815
      3 C                     0.100734
      4 C                     0.097265
      5 C                     0.097261
      6 H                    -0.019261
      7 H                    -0.021662
      8 H                    -0.019264
      9 H                    -0.028140
     10 H                    -0.028702
     11 H                    -0.016953
     12 H                    -0.028708
     13 H                    -0.028137
     14 H                    -0.016956
     15 Br                   -0.116410
     16 C                     0.287499
     17 N                    -0.163649
  ----------------------------------------
  Sum of atomic charges =     0.000000

 -----------------------------------------------------------------
                    Cartesian Multipole Moments
 -----------------------------------------------------------------
    Charge (ESU x 10^10)
                -0.0000
    Dipole Moment (Debye)
         X       3.9391      Y      -0.0001      Z       0.5517
       Tot       3.9776
    Quadrupole Moments (Debye-Ang)
        XX     -80.8218     XY       0.0005     YY     -64.4874
        XZ      -4.4820     YZ      -0.0000     ZZ     -65.2630
    Octopole Moments (Debye-Ang^2)
       XXX      61.0860    XXY       0.0007    XYY     -14.6032
       YYY       0.0055    XXZ      18.8114    XYZ      -0.0003
       YYZ       7.7892    XZZ     -11.9798    YZZ       0.0015
       ZZZ      12.3719
    Hexadecapole Moments (Debye-Ang^3)
      XXXX   -3318.0400   XXXY      -0.0522   XXYY    -516.3771
      XYYY      -0.0505   YYYY    -341.4593   XXXZ    -134.7582
      XXYZ      -0.0015   XYYZ       1.6018   YYYZ       0.0041
      XXZZ    -515.5799   XYZZ      -0.0176   YYZZ    -103.6494
      XZZZ     -26.6363   YZZZ       0.0034   ZZZZ    -272.3691
 -----------------------------------------------------------------
 Calculating analytic gradient of the SCF energy
 Gradient of SCF Energy
            1           2           3           4           5           6
    1  -0.0011106   0.0000733   0.0000134  -0.0000791  -0.0000791  -0.0000196
    2  -0.0000002  -0.0000000  -0.0000000  -0.0000100   0.0000101  -0.0000068
    3   0.0001688  -0.0004411   0.0001215   0.0000221   0.0000217  -0.0000254
            7           8           9          10          11          12
    1  -0.0000116  -0.0000196  -0.0000043   0.0000575   0.0000177   0.0000579
    2   0.0000001   0.0000068   0.0000069   0.0000117   0.0000120  -0.0000117
    3  -0.0000368  -0.0000255  -0.0000007   0.0000002   0.0000069   0.0000002
           13          14          15          16          17
    1  -0.0000045   0.0000178   0.0011626  -0.0000145  -0.0000571
    2  -0.0000068  -0.0000120   0.0000055  -0.0000138   0.0000083
    3  -0.0000007   0.0000070   0.0001960  -0.0002082   0.0001939
 Max gradient component =       1.163E-03
 RMS gradient           =       2.416E-04
 Gradient time:  CPU 141.41 s  wall 9.01 s
 Geometry Optimization Parameters
   NAtoms,    NIC,     NZ,  NCons,   NDum,   NFix, NCnnct, MaxDiis
       17     109       0       0       0       0       0       0

 Cartesian Hessian Update
 Hessian updated using BFGS update


** GEOMETRY OPTIMIZATION IN DELOCALIZED INTERNAL COORDINATES **
   Searching for a Minimum

   Optimization Cycle:   2

                       Coordinates (Angstroms)
     ATOM                X               Y               Z
      1  H         1.1858439952    0.0000719794    1.1749500345
      2  Si        2.2052912108    0.0000772374    0.0661756687
      3  C         3.9177797708    0.0001684500    0.8476526936
      4  C         1.9423246215   -1.5481297440   -0.9743316689
      5  C         1.9422175313    1.5481950381   -0.9744378757
      6  H         4.0694822717    0.8903156200    1.4788271874
      7  H         4.7022720249    0.0001843957    0.0730009495
      8  H         4.0695587307   -0.8899354801    1.4788695532
      9  H         2.0474706860   -2.4623392662   -0.3683161950
     10  H         0.9400839606   -1.5613151102   -1.4322497620
     11  H         2.6815754806   -1.6004674993   -1.7906348531
     12  H         0.9400208482    1.5612257679   -1.4324554475
     13  H         2.0471858093    2.4624521227   -0.3684633733
     14  H         2.6815422688    1.6005824905   -1.7906709531
     15  Br       -1.5755964457   -0.0001446394    0.3974071223
     16  C        -3.2648176572   -0.0002630393   -0.2045144442
     17  N        -4.3568885343   -0.0000644798   -0.5869244814
   Point Group: c1    Number of degrees of freedom:    45


   Energy is  -3075.939208410

 Hessian updated using BFGS update

 35 Hessian modes will be used to form the next step
  Hessian Eigenvalues:
     0.002000    0.003220    0.003241    0.003443    0.007671    0.035744
     0.044568    0.044660    0.054115    0.054115    0.054536    0.055027
     0.055028    0.055215    0.144856    0.145451    0.159161    0.160123
     0.165376    0.199771    0.204959    0.205002    0.205828    0.221133
     0.269234    0.334083    0.334102    0.334135    0.334733    0.334766
     0.334796    0.334796    0.335022    0.335026    1.296913

 Minimum search - taking simple RFO step
 Searching for Lamda that Minimizes Along All modes
 Value Taken    Lamda =  -0.00018434
 Step Taken.  Stepsize is  0.151972

                             Maximum     Tolerance    Cnvgd?
         Gradient           0.001204      0.000050      NO
         Displacement       0.083464      0.000050      NO
         Energy change     -0.000187      0.000000      NO


 New Cartesian Coordinates Obtained by Inverse Iteration

 Displacement from previous Coordinates is:  0.241931
 ----------------------------------------------------------------
             Standard Nuclear Orientation (Angstroms)
    I     Atom           X                Y                Z
 ----------------------------------------------------------------
    1      H       1.2014685581    -0.0000029684     1.1760035890
    2      Si      2.2195617082     0.0000356513     0.0685851898
    3      C       3.9344562314     0.0001487697     0.8451689298
    4      C       1.9547162698    -1.5480432944    -0.9720240455
    5      C       1.9545350650     1.5480517337    -0.9720701696
    6      H       4.0880535540     0.8901878061     1.4761863652
    7      H       4.7173891748     0.0001761920     0.0690077148
    8      H       4.0881542689    -0.8898455824     1.4762249328
    9      H       2.0660423964    -2.4624737972    -0.3674039704
   10      H       0.9493702712    -1.5637352662    -1.4234760402
   11      H       2.6887903018    -1.5980070010    -1.7931234189
   12      H       0.9492014834     1.5635947656    -1.4235563083
   13      H       2.0657169884     2.4625128691    -0.3674701697
   14      H       2.6886302400     1.5980943524    -1.7931460550
   15      Br     -1.6402447213     0.0000468189     0.3922452189
   16      C      -3.3357365269     0.0010679832    -0.1897351290
   17      N      -4.4147586899    -0.0011951890    -0.6075324789
 ----------------------------------------------------------------
 Molecular Point Group                 C1    NOp =  1
 Largest Abelian Subgroup              C1    NOp =  1
 Nuclear Repulsion Energy =         526.35220084 hartrees
 There are       45 alpha and       45 beta electrons
 Applying Cartesian multipole field
    Component          Value
    ---------          -----
     (2,0,0)        1.00000E-11
     (0,2,0)        2.00000E-11
     (0,0,2)       -3.00000E-11
 Nucleus-field energy     =     0.0000000204 hartrees
 Requested basis set is def2-SVPD
 There are 105 shells and 245 basis functions
 A cutoff of  1.0D-14 yielded   5061 shell pairs
 There are     27551 function pairs (     31268 Cartesian)
 Smallest overlap matrix eigenvalue = 1.64E-04
 Attempting to make child job directory: /data/scratch/Me3SiH_BrCN_vfb_backward20240611170946//Frg1/
 Failed to make child job directory:     /data/scratch/Me3SiH_BrCN_vfb_backward20240611170946//Frg1/
 Attempting to make child job directory: /data/scratch/Me3SiH_BrCN_vfb_backward20240611170946//Frg2/
 Failed to make child job directory:     /data/scratch/Me3SiH_BrCN_vfb_backward20240611170946//Frg2/
 Creating input file /data/scratch/Me3SiH_BrCN_vfb_backward20240611170946/Frg1.input
 using default PutDataFrgm: nothing
 calling putenv with: QCSCRATCH=/data/scratch/Me3SiH_BrCN_vfb_backward20240611170946/ 
 Spawning Job For Fragment 0
 Done Job For Fragment 0
 calling putenv with: QCSCRATCH=/data/scratch 
 calling putenv with: QCTHREADS=16 
 Creating input file /data/scratch/Me3SiH_BrCN_vfb_backward20240611170946/Frg2.input
 using default PutDataFrgm: nothing
 calling putenv with: QCSCRATCH=/data/scratch/Me3SiH_BrCN_vfb_backward20240611170946/ 
 Spawning Job For Fragment 1
 Done Job For Fragment 1
 calling putenv with: QCSCRATCH=/data/scratch 
 calling putenv with: QCTHREADS=16 
 Time for running child jobs:  CPU 2.77 s  wall 25.47 s

 -----------------------------------------------------------------------
  General SCF calculation program by
  Eric Jon Sundstrom, Paul Horn, Yuezhi Mao, Dmitri Zuev, Alec White,
  David Stuck, Shaama M.S., Shane Yost, Joonho Lee, David Small,
  Daniel Levine, Susi Lehtola, Hugh Burton, Evgeny Epifanovsky,
  Bang C. Huynh
 -----------------------------------------------------------------------
Performing Restricted Closed Shell SCFMI
Doing General SCFMI
 Exchange:     0.1670 Hartree-Fock + 1.0000 wB97X-V + LR-HF
 Correlation:  1.0000 wB97X-V
 Using Euler-Maclaurin-Lebedev (75,302) quadrature formula
 Nonlocal Correlation:  VV10 with C = 0.0100 and b = 6.00 and scale = 1.00000
 Grid used for NLC:  SG-1 standard quadrature
performing fock build before subrot guess so that all methods have access
Printing subrot_rss_gen Method Specification:
Occupied Subspace Method is 0
Virtual Subspace Method is 0
Energy prior to optimization (guess energy) = -3075.937512054907
Begin Timing: Total SCF Calculation
begin iterations for algorithm: DIIS         
the SCF tolerance is set to 1.00e-09
    1   -3075.9375120549      1.70e-04     00000 
    2   -3075.9382890929      6.33e-05     00000 
    3   -3075.9383731896      3.19e-05     00000 
    4   -3075.9383904332      1.49e-05     00000 
    5   -3075.9383926091      1.11e-05     00000 
    6   -3075.9383942983      3.68e-06     00000 
    7   -3075.9383944968      8.47e-07     00000 
    8   -3075.9383945111      2.28e-07     00000 
    9   -3075.9383945124      8.66e-08     00000 
   10   -3075.9383945125      3.08e-08     00000 
   11   -3075.9383945125      1.10e-08     00000 
   12   -3075.9383945125      3.79e-09     00000 
   13   -3075.9383945125      1.25e-09     00000 
   14   -3075.9383945125      3.99e-10     00000 Convergence criterion met
write pseudocanon occs and virts to disk
write pseudocanon orbital energies to disk
Timing for Total SCF: 43.00s (wall), 680.09s (cpu)
SCFMI Energy   -3075.9383945125
<S^2>            0.00000
====================================================================
           Variational forward-backward (VFB) CT analysis           
 M. Loipersberger, Y. Mao and M. Head-Gordon, JCTC, 16, 1073 (2020) 
====================================================================
Calculating stabilization due to the backward (2->1) CT
Requested donor fragment: 2
updated OccSS dimension
        21
        24
updated VirtSS dimension
          143
          200
Energy prior to optimization (guess energy) = -3075.938394512537
Begin Timing: Total SCF Calculation
begin iterations for algorithm: DIIS         
the SCF tolerance is set to 1.00e-09
    1   -3075.9383945125      8.17e-04     00000 
    2   -3075.9392290869      1.12e-05     00000 
    3   -3075.9392397650      2.55e-06     00000 
    4   -3075.9392401425      1.54e-06     00000 
    5   -3075.9392401889      4.58e-07     00000 
    6   -3075.9392401955      1.80e-07     00000 
    7   -3075.9392401968      3.41e-08     00000 
    8   -3075.9392401969      1.03e-08     00000 
    9   -3075.9392401969      4.14e-09     00000 
   10   -3075.9392401969      1.47e-09     00000 
   11   -3075.9392401969      4.42e-10     00000 Convergence criterion met
write pseudocanon occs and virts to disk
write pseudocanon orbital energies to disk
Timing for Total SCF: 33.00s (wall), 524.96s (cpu)
Energy of the one-side CT state:    -3075.9392401969
Stabilization due to one-side CT:    -2.2204 kJ/mol
<S^2>            0.00000
 Total energy in the final basis set =    -3075.9392401969
    ==================================================
        The end of Object-Oriented SCFman: SCFMI      
    ==================================================
 
 --------------------------------------------------------------
 
                    Orbital Energies (a.u.)
 --------------------------------------------------------------
 
 Alpha MOs
 -- Occupied --
 -482.66736   -66.13287   -62.57340   -56.39684   -56.39202   -56.39200
  -14.45016   -10.37594   -10.27489   -10.27488   -10.27485    -8.86985
   -6.70633    -6.68931    -6.68926    -5.38815    -3.74241    -3.74149
   -3.74145    -2.82751    -2.82253    -2.82249    -2.80932    -2.80930
   -1.06323    -0.99105    -0.85019    -0.80969    -0.80963    -0.65687
   -0.60422    -0.53889    -0.52887    -0.52637    -0.52454    -0.52239
   -0.50611    -0.50606    -0.49787    -0.49527    -0.42481    -0.42479
   -0.42192    -0.41542    -0.41496
 -- Virtual --
    0.04329     0.06877     0.07781     0.08038     0.08659     0.10110
    0.10197     0.11521     0.12209     0.12596     0.14662     0.15011
    0.15307     0.16430     0.16701     0.17566     0.18322     0.18561
    0.19132     0.19928     0.20085     0.20559     0.21886     0.22407
    0.22682     0.23999     0.24842     0.26044     0.26907     0.28450
    0.28833     0.29805     0.30029     0.30577     0.31511     0.32021
    0.33766     0.34155     0.35061     0.35433     0.36938     0.38220
    0.38377     0.39130     0.39715     0.39777     0.40411     0.41009
    0.41042     0.42205     0.42358     0.43529     0.43711     0.43927
    0.44573     0.45692     0.47140     0.47208     0.47284     0.47446
    0.48048     0.48950     0.49237     0.49798     0.51463     0.52167
    0.52619     0.53170     0.54114     0.54740     0.54793     0.55628
    0.57385     0.57537     0.58533     0.59524     0.59665     0.60350
    0.60423     0.61443     0.61991     0.62814     0.63293     0.64552
    0.64625     0.65574     0.66516     0.67287     0.69807     0.72026
    0.72401     0.76534     0.76956     0.78935     0.80790     0.80885
    0.82213     0.82358     0.84357     0.89277     0.90389     0.90406
    0.90828     0.92505     0.95789     0.96092     0.98492     0.99521
    1.02154     1.02285     1.03262     1.04241     1.05576     1.05699
    1.07353     1.08295     1.09242     1.09251     1.10197     1.10686
    1.13240     1.16572     1.16689     1.18190     1.19075     1.24548
    1.24665     1.26938     1.27591     1.27850     1.28981     1.31746
    1.32626     1.34951     1.38465     1.39327     1.41882     1.43073
    1.48271     1.63972     1.68290     1.69785     1.71707     1.74913
    1.77109     1.78871     1.80892     1.81028     1.82398     1.84138
    1.84302     1.88212     1.88670     1.91705     1.94455     2.01754
    2.02016     2.02061     2.02280     2.05454     2.05635     2.07783
    2.09680     2.12631     2.13829     2.15872     2.19659     2.20943
    2.23127     2.24194     2.33387     2.45138     2.47790     2.47990
    2.53479     2.53613     2.60713     2.61083     2.61133     2.62441
    2.62766     2.64032     2.84514     2.89873     2.90277     2.90995
    2.96762     2.97197     3.17856     3.18384     3.18561     3.21592
    3.22539     3.24389     3.57199     3.63314     3.63905     3.72093
    3.75346     4.00280
 --------------------------------------------------------------
 
          Ground-State Mulliken Net Atomic Charges

     Atom                 Charge (a.u.)
  ----------------------------------------
      1 H                     0.339498
      2 Si                   -0.427509
      3 C                     0.101339
      4 C                     0.093766
      5 C                     0.093764
      6 H                    -0.020080
      7 H                    -0.021420
      8 H                    -0.020080
      9 H                    -0.027879
     10 H                    -0.027976
     11 H                    -0.017389
     12 H                    -0.027972
     13 H                    -0.027881
     14 H                    -0.017387
     15 Br                   -0.120020
     16 C                     0.291584
     17 N                    -0.164358
  ----------------------------------------
  Sum of atomic charges =     0.000000

 -----------------------------------------------------------------
                    Cartesian Multipole Moments
 -----------------------------------------------------------------
    Charge (ESU x 10^10)
                -0.0000
    Dipole Moment (Debye)
         X       3.9091      Y       0.0022      Z       0.5907
       Tot       3.9535
    Quadrupole Moments (Debye-Ang)
        XX     -81.0416     XY      -0.0116     YY     -64.5089
        XZ      -4.6993     YZ      -0.0020     ZZ     -65.3499
    Octopole Moments (Debye-Ang^2)
       XXX      67.8168    XXY       0.0483    XYY     -13.2661
       YYY      -0.0046    XXZ      20.1200    XYZ       0.0064
       YYZ       7.8927    XZZ     -10.3940    YZZ      -0.0015
       ZZZ      12.6340
    Hexadecapole Moments (Debye-Ang^3)
      XXXX   -3409.3738   XXXY      -0.2602   XXYY    -528.0108
      XYYY      -0.0389   YYYY    -341.6083   XXXZ    -141.8870
      XXYZ      -0.0348   XYYZ       1.4853   YYYZ      -0.0114
      XXZZ    -528.4417   XYZZ      -0.0173   YYZZ    -103.6413
      XZZZ     -27.5741   YZZZ      -0.0130   ZZZZ    -272.1409
 -----------------------------------------------------------------
 Calculating analytic gradient of the SCF energy
 Gradient of SCF Energy
            1           2           3           4           5           6
    1  -0.0002124  -0.0000302   0.0000329  -0.0000247  -0.0000246   0.0000046
    2   0.0000013  -0.0000009   0.0000002  -0.0000015   0.0000016   0.0000166
    3  -0.0002743   0.0002366  -0.0001019   0.0000305   0.0000317   0.0000055
            7           8           9          10          11          12
    1   0.0000332   0.0000045   0.0000019  -0.0000127   0.0000232  -0.0000133
    2  -0.0000000  -0.0000166  -0.0000001  -0.0000085   0.0000144   0.0000088
    3   0.0000430   0.0000055   0.0000028  -0.0000228   0.0000113  -0.0000239
           13          14          15          16          17
    1   0.0000021   0.0000230   0.0003792  -0.0007236   0.0005368
    2   0.0000002  -0.0000145  -0.0000605   0.0001481  -0.0000887
    3   0.0000026   0.0000113  -0.0010531   0.0023522  -0.0012571
 Max gradient component =       2.352E-03
 RMS gradient           =       4.296E-04
 Gradient time:  CPU 136.16 s  wall 8.57 s
 Geometry Optimization Parameters
   NAtoms,    NIC,     NZ,  NCons,   NDum,   NFix, NCnnct, MaxDiis
       17     109       0       0       0       0       0       0

 Cartesian Hessian Update
 Hessian updated using BFGS update


** GEOMETRY OPTIMIZATION IN DELOCALIZED INTERNAL COORDINATES **
   Searching for a Minimum

   Optimization Cycle:   3

                       Coordinates (Angstroms)
     ATOM                X               Y               Z
      1  H         1.2014685581   -0.0000029684    1.1760035890
      2  Si        2.2195617082    0.0000356513    0.0685851898
      3  C         3.9344562314    0.0001487697    0.8451689298
      4  C         1.9547162698   -1.5480432944   -0.9720240455
      5  C         1.9545350650    1.5480517337   -0.9720701696
      6  H         4.0880535540    0.8901878061    1.4761863652
      7  H         4.7173891748    0.0001761920    0.0690077148
      8  H         4.0881542689   -0.8898455824    1.4762249328
      9  H         2.0660423964   -2.4624737972   -0.3674039704
     10  H         0.9493702712   -1.5637352662   -1.4234760402
     11  H         2.6887903018   -1.5980070010   -1.7931234189
     12  H         0.9492014834    1.5635947656   -1.4235563083
     13  H         2.0657169884    2.4625128691   -0.3674701697
     14  H         2.6886302400    1.5980943524   -1.7931460550
     15  Br       -1.6402447213    0.0000468189    0.3922452189
     16  C        -3.3357365269    0.0010679832   -0.1897351290
     17  N        -4.4147586899   -0.0011951890   -0.6075324789
   Point Group: c1    Number of degrees of freedom:    45


   Energy is  -3075.939240197

 Hessian updated using BFGS update

 35 Hessian modes will be used to form the next step
  Hessian Eigenvalues:
     0.002000    0.002956    0.003443    0.004030    0.035767    0.044568
     0.044632    0.054111    0.054115    0.054539    0.055027    0.055029
     0.144856    0.145474    0.159876    0.160003    0.162343    0.165329
     0.199478    0.200003    0.204990    0.205002    0.205913    0.267545
     0.334081    0.334102    0.334126    0.334704    0.334766    0.334796
     0.334796    0.335020    0.335026    0.746566    1.296929

 Minimum search - taking simple RFO step
 Searching for Lamda that Minimizes Along All modes
 Value Taken    Lamda =  -0.00024565
 Step Taken.  Stepsize is  0.139389

                             Maximum     Tolerance    Cnvgd?
         Gradient           0.010686      0.000050      NO
         Displacement       0.075663      0.000050      NO
         Energy change     -0.000032      0.000000      NO


 New Cartesian Coordinates Obtained by Inverse Iteration

 Displacement from previous Coordinates is:  0.226972
 ----------------------------------------------------------------
             Standard Nuclear Orientation (Angstroms)
    I     Atom           X                Y                Z
 ----------------------------------------------------------------
    1      H       1.2165385394    -0.0001655892     1.1789498766
    2      Si      2.2329233650    -0.0000224173     0.0720174696
    3      C       3.9501802680     0.0002880714     0.8433705493
    4      C       1.9650662432    -1.5480223989    -0.9682874285
    5      C       1.9645204808     1.5478465793    -0.9683361173
    6      H       4.1059293154     0.8902457289     1.4740659784
    7      H       4.7307520111     0.0003880601     0.0649061525
    8      H       4.1062234866    -0.8895724589     1.4741306156
    9      H       2.0835379926    -2.4626791977    -0.3653358493
   10      H       0.9559664769    -1.5663013974    -1.4115940279
   11      H       2.6925778305    -1.5954772347    -1.7953024609
   12      H       0.9553961722     1.5657724676    -1.4116042347
   13      H       2.0827099431     2.4625634441    -0.3654208156
   14      H       2.6919880011     1.5955124662    -1.7953783431
   15      Br     -1.6953925302    -0.0001995455     0.3809828094
   16      C      -3.3818193712    -0.0012910253    -0.2270076370
   17      N      -4.4817516511     0.0017282906    -0.5862723824
 ----------------------------------------------------------------
 Molecular Point Group                 C1    NOp =  1
 Largest Abelian Subgroup              C1    NOp =  1
 Nuclear Repulsion Energy =         523.29844055 hartrees
 There are       45 alpha and       45 beta electrons
 Applying Cartesian multipole field
    Component          Value
    ---------          -----
     (2,0,0)        1.00000E-11
     (0,2,0)        2.00000E-11
     (0,0,2)       -3.00000E-11
 Nucleus-field energy     =     0.0000000210 hartrees
 Requested basis set is def2-SVPD
 There are 105 shells and 245 basis functions
 A cutoff of  1.0D-14 yielded   5052 shell pairs
 There are     27504 function pairs (     31217 Cartesian)
 Smallest overlap matrix eigenvalue = 1.63E-04
 Attempting to make child job directory: /data/scratch/Me3SiH_BrCN_vfb_backward20240611170946//Frg1/
 Failed to make child job directory:     /data/scratch/Me3SiH_BrCN_vfb_backward20240611170946//Frg1/
 Attempting to make child job directory: /data/scratch/Me3SiH_BrCN_vfb_backward20240611170946//Frg2/
 Failed to make child job directory:     /data/scratch/Me3SiH_BrCN_vfb_backward20240611170946//Frg2/
 Creating input file /data/scratch/Me3SiH_BrCN_vfb_backward20240611170946/Frg1.input
 using default PutDataFrgm: nothing
 calling putenv with: QCSCRATCH=/data/scratch/Me3SiH_BrCN_vfb_backward20240611170946/ 
 Spawning Job For Fragment 0
 Done Job For Fragment 0
 calling putenv with: QCSCRATCH=/data/scratch 
 calling putenv with: QCTHREADS=16 
 Creating input file /data/scratch/Me3SiH_BrCN_vfb_backward20240611170946/Frg2.input
 using default PutDataFrgm: nothing
 calling putenv with: QCSCRATCH=/data/scratch/Me3SiH_BrCN_vfb_backward20240611170946/ 
 Spawning Job For Fragment 1
 Done Job For Fragment 1
 calling putenv with: QCSCRATCH=/data/scratch 
 calling putenv with: QCTHREADS=16 
 Time for running child jobs:  CPU 2.56 s  wall 25.40 s

 -----------------------------------------------------------------------
  General SCF calculation program by
  Eric Jon Sundstrom, Paul Horn, Yuezhi Mao, Dmitri Zuev, Alec White,
  David Stuck, Shaama M.S., Shane Yost, Joonho Lee, David Small,
  Daniel Levine, Susi Lehtola, Hugh Burton, Evgeny Epifanovsky,
  Bang C. Huynh
 -----------------------------------------------------------------------
Performing Restricted Closed Shell SCFMI
Doing General SCFMI
 Exchange:     0.1670 Hartree-Fock + 1.0000 wB97X-V + LR-HF
 Correlation:  1.0000 wB97X-V
 Using Euler-Maclaurin-Lebedev (75,302) quadrature formula
 Nonlocal Correlation:  VV10 with C = 0.0100 and b = 6.00 and scale = 1.00000
 Grid used for NLC:  SG-1 standard quadrature
performing fock build before subrot guess so that all methods have access
Printing subrot_rss_gen Method Specification:
Occupied Subspace Method is 0
Virtual Subspace Method is 0
Energy prior to optimization (guess energy) = -3075.937697923773
Begin Timing: Total SCF Calculation
begin iterations for algorithm: DIIS         
the SCF tolerance is set to 1.00e-09
    1   -3075.9376979238      1.61e-04     00000 
    2   -3075.9383814070      5.99e-05     00000 
    3   -3075.9384555361      2.95e-05     00000 
    4   -3075.9384704110      1.27e-05     00000 
    5   -3075.9384720616      9.04e-06     00000 
    6   -3075.9384731258      3.40e-06     00000 
    7   -3075.9384732952      7.22e-07     00000 
    8   -3075.9384733060      1.78e-07     00000 
    9   -3075.9384733068      6.50e-08     00000 
   10   -3075.9384733069      2.18e-08     00000 
   11   -3075.9384733069      7.63e-09     00000 
   12   -3075.9384733069      2.56e-09     00000 
   13   -3075.9384733069      8.29e-10     00000 Convergence criterion met
write pseudocanon occs and virts to disk
write pseudocanon orbital energies to disk
Timing for Total SCF: 41.00s (wall), 629.42s (cpu)
SCFMI Energy   -3075.9384733069
<S^2>            0.00000
====================================================================
           Variational forward-backward (VFB) CT analysis           
 M. Loipersberger, Y. Mao and M. Head-Gordon, JCTC, 16, 1073 (2020) 
====================================================================
Calculating stabilization due to the backward (2->1) CT
Requested donor fragment: 2
updated OccSS dimension
        21
        24
updated VirtSS dimension
          143
          200
Energy prior to optimization (guess energy) = -3075.938473306914
Begin Timing: Total SCF Calculation
begin iterations for algorithm: DIIS         
the SCF tolerance is set to 1.00e-09
    1   -3075.9384733069      7.82e-04     00000 
    2   -3075.9392493599      1.07e-05     00000 
    3   -3075.9392591096      2.43e-06     00000 
    4   -3075.9392594450      1.50e-06     00000 
    5   -3075.9392594886      4.71e-07     00000 
    6   -3075.9392594956      1.60e-07     00000 
    7   -3075.9392594967      3.07e-08     00000 
    8   -3075.9392594967      8.49e-09     00000 
    9   -3075.9392594968      3.29e-09     00000 
   10   -3075.9392594968      1.10e-09     00000 
   11   -3075.9392594968      3.44e-10     00000 Convergence criterion met
write pseudocanon occs and virts to disk
write pseudocanon orbital energies to disk
Timing for Total SCF: 32.00s (wall), 520.42s (cpu)
Energy of the one-side CT state:    -3075.9392594968
Stabilization due to one-side CT:    -2.0642 kJ/mol
<S^2>            0.00000
 Total energy in the final basis set =    -3075.9392594968
    ==================================================
        The end of Object-Oriented SCFman: SCFMI      
    ==================================================
 
 --------------------------------------------------------------
 
                    Orbital Energies (a.u.)
 --------------------------------------------------------------
 
 Alpha MOs
 -- Occupied --
 -482.66759   -66.13241   -62.57370   -56.39712   -56.39232   -56.39229
  -14.45045   -10.37628   -10.27470   -10.27463   -10.27460    -8.87017
   -6.70664    -6.68964    -6.68960    -5.38772    -3.74197    -3.74106
   -3.74102    -2.82781    -2.82286    -2.82282    -2.80966    -2.80964
   -1.06347    -0.99133    -0.84988    -0.80947    -0.80934    -0.65672
   -0.60415    -0.53864    -0.52859    -0.52622    -0.52466    -0.52256
   -0.50588    -0.50584    -0.49811    -0.49499    -0.42514    -0.42505
   -0.42158    -0.41517    -0.41465
 -- Virtual --
    0.04205     0.06903     0.07897     0.08037     0.08671     0.10078
    0.10106     0.11382     0.12245     0.12572     0.14678     0.14984
    0.15255     0.16419     0.16736     0.17573     0.18267     0.18554
    0.19148     0.19922     0.20092     0.20578     0.21872     0.22369
    0.22523     0.23853     0.24766     0.26159     0.26723     0.28417
    0.28843     0.29736     0.30069     0.30647     0.31366     0.31954
    0.33785     0.34135     0.34796     0.35315     0.37017     0.38034
    0.38427     0.38951     0.39490     0.40045     0.40412     0.40921
    0.40979     0.42253     0.42410     0.43560     0.43593     0.43811
    0.44621     0.45982     0.47099     0.47189     0.47203     0.47500
    0.48046     0.48853     0.49185     0.49750     0.51136     0.52085
    0.52693     0.53041     0.54050     0.54701     0.54798     0.55422
    0.57410     0.57531     0.58678     0.59407     0.59640     0.60203
    0.60355     0.61434     0.62059     0.62811     0.63978     0.64233
    0.64558     0.65545     0.66326     0.66904     0.69736     0.72065
    0.72302     0.76410     0.77091     0.78552     0.80164     0.80849
    0.82006     0.82322     0.83627     0.89112     0.90021     0.90245
    0.90768     0.92220     0.95710     0.96122     0.98462     0.99637
    1.02202     1.02423     1.03394     1.04097     1.05451     1.06011
    1.07089     1.08307     1.08989     1.09198     1.09910     1.10378
    1.13298     1.16191     1.16629     1.18255     1.19020     1.24177
    1.24535     1.26739     1.27256     1.27815     1.28694     1.31291
    1.32613     1.34669     1.38436     1.39317     1.41821     1.42993
    1.48174     1.64371     1.68262     1.69787     1.71760     1.74925
    1.77177     1.78938     1.80918     1.80999     1.82369     1.84088
    1.84271     1.88108     1.88427     1.91710     1.94252     2.01789
    2.02039     2.02052     2.02258     2.05418     2.05579     2.07767
    2.09619     2.12587     2.13842     2.15882     2.19682     2.20904
    2.23156     2.24180     2.33445     2.45206     2.47807     2.48017
    2.53489     2.53585     2.60707     2.61110     2.61124     2.62457
    2.62758     2.64036     2.84509     2.89875     2.90258     2.90993
    2.96727     2.96948     3.17861     3.18392     3.18541     3.21610
    3.22555     3.24367     3.57201     3.63263     3.63826     3.71955
    3.75085     4.00019
 --------------------------------------------------------------
 
          Ground-State Mulliken Net Atomic Charges

     Atom                 Charge (a.u.)
  ----------------------------------------
      1 H                     0.344355
      2 Si                   -0.425630
      3 C                     0.101584
      4 C                     0.091178
      5 C                     0.091195
      6 H                    -0.020924
      7 H                    -0.020697
      8 H                    -0.020918
      9 H                    -0.027728
     10 H                    -0.026997
     11 H                    -0.018132
     12 H                    -0.026993
     13 H                    -0.027724
     14 H                    -0.018142
     15 Br                   -0.127865
     16 C                     0.291710
     17 N                    -0.158272
  ----------------------------------------
  Sum of atomic charges =     0.000000

 -----------------------------------------------------------------
                    Cartesian Multipole Moments
 -----------------------------------------------------------------
    Charge (ESU x 10^10)
                -0.0000
    Dipole Moment (Debye)
         X       3.9096      Y      -0.0030      Z       0.5449
       Tot       3.9474
    Quadrupole Moments (Debye-Ang)
        XX     -81.5773     XY       0.0164     YY     -64.5351
        XZ      -4.4875     YZ       0.0028     ZZ     -65.2846
    Octopole Moments (Debye-Ang^2)
       XXX      75.7385    XXY      -0.0724    XYY     -12.1329
       YYY       0.0022    XXZ      19.7664    XYZ      -0.0110
       YYZ       8.1224    XZZ      -9.4981    YZZ       0.0001
       ZZZ      13.2345
    Hexadecapole Moments (Debye-Ang^3)
      XXXX   -3505.4337   XXXY       0.3677   XXYY    -538.6761
      XYYY       0.0508   YYYY    -341.7920   XXXZ    -142.3947
      XXYZ       0.0408   XYYZ       1.1085   YYYZ       0.0098
      XXZZ    -537.9819   XYZZ       0.0228   YYZZ    -103.3401
      XZZZ     -28.9229   YZZZ       0.0108   ZZZZ    -269.9474
 -----------------------------------------------------------------
 Calculating analytic gradient of the SCF energy
 Gradient of SCF Energy
            1           2           3           4           5           6
    1   0.0003324   0.0000766   0.0000135   0.0000139   0.0000137   0.0000279
    2  -0.0000004   0.0000014  -0.0000001   0.0000112  -0.0000117   0.0000221
    3  -0.0007127   0.0007338  -0.0002306   0.0000418   0.0000426   0.0000391
            7           8           9          10          11          12
    1   0.0000208   0.0000281  -0.0000018  -0.0000947   0.0000029  -0.0000956
    2  -0.0000001  -0.0000222  -0.0000056  -0.0000457   0.0000256   0.0000450
    3   0.0000818   0.0000392   0.0000023  -0.0000522   0.0000251  -0.0000510
           13          14          15          16          17
    1  -0.0000020   0.0000039  -0.0004348   0.0005158  -0.0004206
    2   0.0000051  -0.0000260   0.0000767  -0.0001883   0.0001128
    3   0.0000025   0.0000252   0.0005501  -0.0015255   0.0009886
 Max gradient component =       1.526E-03
 RMS gradient           =       3.301E-04
 Gradient time:  CPU 134.72 s  wall 8.47 s
 Geometry Optimization Parameters
   NAtoms,    NIC,     NZ,  NCons,   NDum,   NFix, NCnnct, MaxDiis
       17     109       0       0       0       0       0       0

 Cartesian Hessian Update
 Hessian updated using BFGS update


** GEOMETRY OPTIMIZATION IN DELOCALIZED INTERNAL COORDINATES **
   Searching for a Minimum

   Optimization Cycle:   4

                       Coordinates (Angstroms)
     ATOM                X               Y               Z
      1  H         1.2165385394   -0.0001655892    1.1789498766
      2  Si        2.2329233650   -0.0000224173    0.0720174696
      3  C         3.9501802680    0.0002880714    0.8433705493
      4  C         1.9650662432   -1.5480223989   -0.9682874285
      5  C         1.9645204808    1.5478465793   -0.9683361173
      6  H         4.1059293154    0.8902457289    1.4740659784
      7  H         4.7307520111    0.0003880601    0.0649061525
      8  H         4.1062234866   -0.8895724589    1.4741306156
      9  H         2.0835379926   -2.4626791977   -0.3653358493
     10  H         0.9559664769   -1.5663013974   -1.4115940279
     11  H         2.6925778305   -1.5954772347   -1.7953024609
     12  H         0.9553961722    1.5657724676   -1.4116042347
     13  H         2.0827099431    2.4625634441   -0.3654208156
     14  H         2.6919880011    1.5955124662   -1.7953783431
     15  Br       -1.6953925302   -0.0001995455    0.3809828094
     16  C        -3.3818193712   -0.0012910253   -0.2270076370
     17  N        -4.4817516511    0.0017282906   -0.5862723824
   Point Group: c1    Number of degrees of freedom:    45


   Energy is  -3075.939259497

 Hessian updated using BFGS update

 38 Hessian modes will be used to form the next step
  Hessian Eigenvalues:
     0.002000    0.003129    0.003241    0.003443    0.005010    0.035770
     0.044568    0.044690    0.054107    0.054115    0.054538    0.055027
     0.055028    0.055215    0.144856    0.145485    0.159904    0.160000
     0.160014    0.162060    0.165580    0.198505    0.200000    0.200093
     0.204991    0.205002    0.205903    0.267551    0.334085    0.334102
     0.334131    0.334757    0.334796    0.334796    0.335024    0.335026
     1.057112    1.297028

 Minimum search - taking simple RFO step
 Searching for Lamda that Minimizes Along All modes
 Value Taken    Lamda =  -0.00009890
 Step Taken.  Stepsize is  0.079163

                             Maximum     Tolerance    Cnvgd?
         Gradient           0.007655      0.000050      NO
         Displacement       0.044027      0.000050      NO
         Energy change     -0.000019      0.000000      NO


 New Cartesian Coordinates Obtained by Inverse Iteration

 Displacement from previous Coordinates is:  0.142044
 ----------------------------------------------------------------
             Standard Nuclear Orientation (Angstroms)
    I     Atom           X                Y                Z
 ----------------------------------------------------------------
    1      H       1.2101364475    -0.0000803914     1.1827239852
    2      Si      2.2250389261     0.0000005318     0.0717882324
    3      C       3.9424501334     0.0001490539     0.8424690026
    4      C       1.9566266366    -1.5479841123    -0.9682071968
    5      C       1.9563632455     1.5479326931    -0.9682202181
    6      H       4.0984385458     0.8901745609     1.4728694884
    7      H       4.7222408266     0.0002027243     0.0631199792
    8      H       4.0985828826    -0.8898354164     1.4728915401
    9      H       2.0731730861    -2.4625897566    -0.3648334220
   10      H       0.9482836595    -1.5648810083    -1.4128041045
   11      H       2.6851430246    -1.5965797804    -1.7943123305
   12      H       0.9480200952     1.5646520165    -1.4128234213
   13      H       2.0727474824     2.4625626891    -0.3648518634
   14      H       2.6848745722     1.5966510054    -1.7943224180
   15      Br     -1.6599369962     0.0001820965     0.3870487239
   16      C      -3.3481912494     0.0017524449    -0.2158180967
   17      N      -4.4386447452    -0.0016955078    -0.6028337256
 ----------------------------------------------------------------
 Molecular Point Group                 C1    NOp =  1
 Largest Abelian Subgroup              C1    NOp =  1
 Nuclear Repulsion Energy =         525.29193989 hartrees
 There are       45 alpha and       45 beta electrons
 Applying Cartesian multipole field
    Component          Value
    ---------          -----
     (2,0,0)        1.00000E-11
     (0,2,0)        2.00000E-11
     (0,0,2)       -3.00000E-11
 Nucleus-field energy     =     0.0000000206 hartrees
 Requested basis set is def2-SVPD
 There are 105 shells and 245 basis functions
 A cutoff of  1.0D-14 yielded   5058 shell pairs
 There are     27522 function pairs (     31235 Cartesian)
 Smallest overlap matrix eigenvalue = 1.63E-04
 Attempting to make child job directory: /data/scratch/Me3SiH_BrCN_vfb_backward20240611170946//Frg1/
 Failed to make child job directory:     /data/scratch/Me3SiH_BrCN_vfb_backward20240611170946//Frg1/
 Attempting to make child job directory: /data/scratch/Me3SiH_BrCN_vfb_backward20240611170946//Frg2/
 Failed to make child job directory:     /data/scratch/Me3SiH_BrCN_vfb_backward20240611170946//Frg2/
 Creating input file /data/scratch/Me3SiH_BrCN_vfb_backward20240611170946/Frg1.input
 using default PutDataFrgm: nothing
 calling putenv with: QCSCRATCH=/data/scratch/Me3SiH_BrCN_vfb_backward20240611170946/ 
 Spawning Job For Fragment 0
 Done Job For Fragment 0
 calling putenv with: QCSCRATCH=/data/scratch 
 calling putenv with: QCTHREADS=16 
 Creating input file /data/scratch/Me3SiH_BrCN_vfb_backward20240611170946/Frg2.input
 using default PutDataFrgm: nothing
 calling putenv with: QCSCRATCH=/data/scratch/Me3SiH_BrCN_vfb_backward20240611170946/ 
 Spawning Job For Fragment 1
 Done Job For Fragment 1
 calling putenv with: QCSCRATCH=/data/scratch 
 calling putenv with: QCTHREADS=16 
 Time for running child jobs:  CPU 2.51 s  wall 25.29 s

 -----------------------------------------------------------------------
  General SCF calculation program by
  Eric Jon Sundstrom, Paul Horn, Yuezhi Mao, Dmitri Zuev, Alec White,
  David Stuck, Shaama M.S., Shane Yost, Joonho Lee, David Small,
  Daniel Levine, Susi Lehtola, Hugh Burton, Evgeny Epifanovsky,
  Bang C. Huynh
 -----------------------------------------------------------------------
Performing Restricted Closed Shell SCFMI
Doing General SCFMI
 Exchange:     0.1670 Hartree-Fock + 1.0000 wB97X-V + LR-HF
 Correlation:  1.0000 wB97X-V
 Using Euler-Maclaurin-Lebedev (75,302) quadrature formula
 Nonlocal Correlation:  VV10 with C = 0.0100 and b = 6.00 and scale = 1.00000
 Grid used for NLC:  SG-1 standard quadrature
performing fock build before subrot guess so that all methods have access
Printing subrot_rss_gen Method Specification:
Occupied Subspace Method is 0
Virtual Subspace Method is 0
Energy prior to optimization (guess energy) = -3075.937650835230
Begin Timing: Total SCF Calculation
begin iterations for algorithm: DIIS         
the SCF tolerance is set to 1.00e-09
    1   -3075.9376508352      1.67e-04     00000 
    2   -3075.9383889881      6.23e-05     00000 
    3   -3075.9384690515      3.11e-05     00000 
    4   -3075.9384853607      1.39e-05     00000 
    5   -3075.9384872683      1.03e-05     00000 
    6   -3075.9384886596      3.63e-06     00000 
    7   -3075.9384888516      8.00e-07     00000 
    8   -3075.9384888646      2.09e-07     00000 
    9   -3075.9384888656      7.90e-08     00000 
   10   -3075.9384888657      2.78e-08     00000 
   11   -3075.9384888658      9.80e-09     00000 
   12   -3075.9384888658      3.30e-09     00000 
   13   -3075.9384888658      1.08e-09     00000 
   14   -3075.9384888658      3.39e-10     00000 Convergence criterion met
write pseudocanon occs and virts to disk
write pseudocanon orbital energies to disk
Timing for Total SCF: 42.00s (wall), 670.87s (cpu)
SCFMI Energy   -3075.9384888658
<S^2>            0.00000
====================================================================
           Variational forward-backward (VFB) CT analysis           
 M. Loipersberger, Y. Mao and M. Head-Gordon, JCTC, 16, 1073 (2020) 
====================================================================
Calculating stabilization due to the backward (2->1) CT
Requested donor fragment: 2
updated OccSS dimension
        21
        24
updated VirtSS dimension
          143
          200
Energy prior to optimization (guess energy) = -3075.938488865760
Begin Timing: Total SCF Calculation
begin iterations for algorithm: DIIS         
the SCF tolerance is set to 1.00e-09
    1   -3075.9384888658      8.00e-04     00000 
    2   -3075.9393013772      1.10e-05     00000 
    3   -3075.9393116948      2.51e-06     00000 
    4   -3075.9393120540      1.54e-06     00000 
    5   -3075.9393120998      4.70e-07     00000 
    6   -3075.9393121068      1.71e-07     00000 
    7   -3075.9393121080      3.27e-08     00000 
    8   -3075.9393121081      9.49e-09     00000 
    9   -3075.9393121081      3.77e-09     00000 
   10   -3075.9393121081      1.32e-09     00000 
   11   -3075.9393121081      4.03e-10     00000 Convergence criterion met
write pseudocanon occs and virts to disk
write pseudocanon orbital energies to disk
Timing for Total SCF: 32.00s (wall), 518.34s (cpu)
Energy of the one-side CT state:    -3075.9393121081
Stabilization due to one-side CT:    -2.1614 kJ/mol
<S^2>            0.00000
 Total energy in the final basis set =    -3075.9393121081
    ==================================================
        The end of Object-Oriented SCFman: SCFMI      
    ==================================================
 
 --------------------------------------------------------------
 
                    Orbital Energies (a.u.)
 --------------------------------------------------------------
 
 Alpha MOs
 -- Occupied --
 -482.66750   -66.13274   -62.57357   -56.39700   -56.39219   -56.39217
  -14.45028   -10.37611   -10.27479   -10.27479   -10.27475    -8.87003
   -6.70650    -6.68949    -6.68945    -5.38801    -3.74227    -3.74136
   -3.74132    -2.82767    -2.82271    -2.82267    -2.80950    -2.80949
[...]
 IR Intens:        7.309                  7.666                 19.079
 Raman Active:       YES                    YES                    YES
               X      Y      Z        X      Y      Z        X      Y      Z
 H         -0.000  0.299  0.000   -0.236 -0.000  0.197    0.000 -0.320 -0.000
 Si        -0.000  0.153  0.000   -0.119 -0.000  0.098    0.000 -0.064 -0.000
 C          0.000  0.077 -0.000    0.229 -0.000 -0.097   -0.000  0.115 -0.000
 C         -0.062 -0.157  0.140   -0.024  0.134 -0.028   -0.075  0.041 -0.023
 C          0.062 -0.157 -0.140   -0.024 -0.134 -0.028    0.075  0.041  0.023
 H          0.280 -0.078 -0.132    0.332 -0.014 -0.096    0.387 -0.111 -0.189
 H          0.000 -0.109 -0.000    0.246  0.000 -0.100   -0.000 -0.180  0.000
 H         -0.279 -0.078  0.132    0.332  0.014 -0.096   -0.387 -0.111  0.189
 H          0.020 -0.106  0.069    0.126  0.317 -0.273    0.138  0.103 -0.070
 H         -0.033 -0.389  0.213    0.000 -0.126  0.006    0.012 -0.235  0.165
 H         -0.012 -0.244  0.104    0.089  0.070 -0.128    0.143  0.216 -0.185
 H          0.033 -0.389 -0.213    0.000  0.126  0.006   -0.013 -0.235 -0.165
 H         -0.020 -0.107 -0.069    0.126 -0.317 -0.273   -0.137  0.103  0.069
 H          0.012 -0.244 -0.104    0.089 -0.070 -0.128   -0.143  0.216  0.185
 Br        -0.000  0.000 -0.000    0.000 -0.000 -0.000   -0.000  0.000 -0.000
 C          0.000 -0.000  0.000    0.001  0.000  0.000    0.000 -0.001  0.000
 N          0.000  0.000 -0.000    0.001 -0.000 -0.001   -0.000  0.000 -0.000
 TransDip  -0.000  0.087  0.000   -0.066 -0.000  0.059    0.000 -0.140 -0.000

 Mode:                22                     23                     24
 Frequency:       841.25                 858.69                 916.82
 Force Cnst:      0.6106                 0.6881                 0.6500
 Red. Mass:       1.4644                 1.5839                 1.3125
 IR Active:          YES                    YES                    YES
 IR Intens:       24.749                 81.132                141.897
 Raman Active:       YES                    YES                    YES
               X      Y      Z        X      Y      Z        X      Y      Z
 H          0.222  0.000 -0.192   -0.040 -0.000 -0.063   -0.000  0.818  0.000
 Si         0.050  0.000 -0.049   -0.066 -0.000 -0.064    0.000 -0.081 -0.000
 C         -0.059 -0.000 -0.037    0.054  0.000  0.089    0.000  0.051  0.000
 C         -0.043  0.044  0.093    0.077  0.014  0.064    0.030  0.042  0.044
 C         -0.043 -0.044  0.093    0.077 -0.014  0.064   -0.030  0.042 -0.044
 H          0.070  0.021  0.039   -0.223 -0.044 -0.070    0.149 -0.050 -0.089
 H         -0.266  0.000  0.153    0.400 -0.000 -0.240    0.000 -0.092 -0.000
 H          0.071 -0.021  0.039   -0.223  0.044 -0.070   -0.149 -0.050  0.089
 H          0.117  0.304 -0.288   -0.114  0.117 -0.149    0.002  0.181 -0.181
 H         -0.038 -0.355  0.071   -0.045  0.125 -0.225   -0.030  0.014 -0.120
 H          0.051 -0.249 -0.002   -0.135 -0.371  0.199   -0.019 -0.187  0.061
 H         -0.038  0.355  0.071   -0.045 -0.125 -0.225    0.030  0.015  0.120
 H          0.117 -0.304 -0.288   -0.114 -0.117 -0.149   -0.002  0.181  0.180
 H          0.051  0.249 -0.002   -0.135  0.371  0.199    0.019 -0.187 -0.061
 Br        -0.000  0.000 -0.000    0.001  0.000 -0.000    0.000 -0.000 -0.000
 C         -0.000  0.000  0.000   -0.001 -0.000 -0.001   -0.000  0.002 -0.000
 N         -0.001 -0.000  0.000   -0.001  0.000  0.001   -0.000 -0.000  0.000
 TransDip   0.115  0.000 -0.111   -0.235 -0.000 -0.168    0.000 -0.382 -0.000

 Mode:                25                     26                     27
 Frequency:       928.95                1272.05                1272.55
 Force Cnst:      0.6466                 1.2230                 1.2254
 Red. Mass:       1.2717                 1.2828                 1.2843
 IR Active:          YES                    YES                    YES
 IR Intens:      184.644                 44.119                 38.916
 Raman Active:       YES                    YES                    YES
               X      Y      Z        X      Y      Z        X      Y      Z
 H          0.647  0.000 -0.539   -0.000 -0.021  0.000   -0.016  0.000  0.013
 Si        -0.055 -0.000  0.050    0.000  0.016 -0.000    0.012 -0.000 -0.010
 C         -0.014  0.000 -0.072   -0.000 -0.004  0.000   -0.114  0.000  0.046
 C          0.050 -0.004 -0.007   -0.017 -0.092  0.059   -0.014 -0.054  0.039
 C          0.050  0.004 -0.007    0.017 -0.092 -0.059   -0.014  0.055  0.039
 H          0.203  0.019  0.020   -0.000  0.002  0.008    0.408 -0.169 -0.057
 H         -0.204  0.000  0.113    0.000  0.017 -0.000    0.311 -0.000 -0.327
 H          0.203 -0.019  0.020    0.001  0.003 -0.009    0.408  0.169 -0.057
 H         -0.082 -0.030  0.011    0.088  0.196 -0.338    0.064  0.125 -0.207
 H          0.002  0.185 -0.109   -0.103  0.353 -0.167   -0.069  0.211 -0.109
 H         -0.072 -0.046  0.084    0.181  0.353 -0.087    0.125  0.208 -0.065
 H          0.002 -0.185 -0.109    0.102  0.352  0.166   -0.069 -0.212 -0.109
 H         -0.082  0.030  0.011   -0.088  0.195  0.337    0.064 -0.126 -0.208
 H         -0.072  0.046  0.084   -0.180  0.352  0.087    0.125 -0.209 -0.065
 Br        -0.000  0.000  0.001   -0.000 -0.000  0.000   -0.000  0.000  0.000
 C         -0.001 -0.000 -0.002   -0.000  0.000 -0.000   -0.000 -0.000 -0.000
 N         -0.000  0.000  0.000    0.000 -0.000  0.000    0.000  0.000  0.000
 TransDip  -0.358 -0.000  0.248    0.000  0.213 -0.000    0.142 -0.000 -0.141

 Mode:                28                     29                     30
 Frequency:      1279.33                1424.83                1426.92
 Force Cnst:      1.2034                 1.2582                 1.2593
 Red. Mass:       1.2479                 1.0519                 1.0498
 IR Active:          YES                    YES                    YES
 IR Intens:       11.376                  0.084                  0.024
 Raman Active:       YES                    YES                    YES
               X      Y      Z        X      Y      Z        X      Y      Z
 H          0.010 -0.000  0.012    0.000 -0.004 -0.000   -0.000 -0.010  0.000
 Si         0.003  0.000  0.003   -0.000  0.000  0.000    0.000 -0.000  0.000
 C         -0.086  0.000  0.032   -0.000 -0.038  0.000   -0.000 -0.008  0.000
 C          0.012  0.067 -0.046   -0.017  0.020  0.025    0.040  0.004  0.016
 C          0.012 -0.067 -0.046    0.017  0.020 -0.025   -0.040  0.004 -0.016
 H          0.326 -0.127 -0.039    0.240  0.032  0.161    0.056  0.007  0.034
 H          0.244 -0.000 -0.257    0.000  0.443 -0.000    0.000  0.099 -0.000
 H          0.326  0.127 -0.039   -0.240  0.032 -0.161   -0.056  0.007 -0.034
 H         -0.063 -0.158  0.267    0.062 -0.090  0.197   -0.497 -0.012 -0.089
 H          0.083 -0.272  0.142   -0.134 -0.013 -0.292   -0.042 -0.331 -0.187
 H         -0.147 -0.273  0.072    0.286 -0.158 -0.233    0.000  0.290  0.054
 H          0.083  0.272  0.142    0.134 -0.013  0.292    0.042 -0.331  0.187
 H         -0.063  0.158  0.267   -0.062 -0.090 -0.197    0.497 -0.012  0.089
 H         -0.147  0.273  0.071   -0.286 -0.158  0.233   -0.000  0.290 -0.054
 Br         0.000 -0.000 -0.000   -0.000 -0.000  0.000   -0.000 -0.000  0.000
 C          0.000  0.000  0.000   -0.000  0.000 -0.000   -0.000  0.000 -0.000
 N         -0.000 -0.000  0.000    0.000 -0.000  0.000    0.000  0.000  0.000
 TransDip   0.086  0.000  0.066   -0.000  0.009 -0.000   -0.000  0.005 -0.000

 Mode:                31                     32                     33
 Frequency:      1427.12                1436.82                1436.88
 Force Cnst:      1.2592                 1.2724                 1.2725
 Red. Mass:       1.0494                 1.0461                 1.0461
 IR Active:          YES                    YES                    YES
 IR Intens:        0.351                  2.700                  2.590
 Raman Active:       YES                    YES                    YES
               X      Y      Z        X      Y      Z        X      Y      Z
 H         -0.007 -0.000  0.007    0.023 -0.000 -0.019    0.000  0.030 -0.000
 Si        -0.000  0.000  0.001   -0.006  0.000  0.005   -0.000 -0.008  0.000
 C         -0.016 -0.000 -0.043    0.008  0.000  0.016    0.000 -0.045  0.000
 C          0.008  0.015  0.023   -0.031  0.018  0.016    0.005 -0.013 -0.021
 C          0.008 -0.015  0.023   -0.031 -0.018  0.015   -0.005 -0.013  0.021
 H          0.022  0.289  0.391   -0.015 -0.116 -0.161    0.320  0.039  0.203
 H          0.176 -0.000 -0.204   -0.079 -0.002  0.091   -0.000  0.566  0.000
 H          0.022 -0.289  0.391   -0.012  0.116 -0.159   -0.320  0.040 -0.204
 H         -0.192 -0.069  0.093    0.269 -0.095  0.248    0.040  0.073 -0.135
 H         -0.108 -0.161 -0.285   -0.117  0.131 -0.222    0.110  0.057  0.261
 H          0.193  0.028 -0.132    0.287 -0.286 -0.257   -0.222  0.062  0.169
 H         -0.108  0.161 -0.285   -0.116 -0.132 -0.220   -0.111  0.056 -0.262
 H         -0.192  0.069  0.093    0.269  0.095  0.247   -0.037  0.074  0.137
 H          0.193 -0.029 -0.132    0.285  0.285 -0.255    0.224  0.064 -0.171
 Br        -0.000 -0.000  0.000    0.000 -0.000  0.000    0.000  0.000  0.000
 C         -0.000  0.000 -0.000   -0.000  0.000 -0.000   -0.000 -0.000 -0.000
 N          0.000  0.000 -0.000    0.000 -0.000 -0.000    0.000  0.000 -0.000
 TransDip  -0.019  0.000  0.001    0.016 -0.000 -0.050    0.000  0.052 -0.000

 Mode:                34                     35                     36
 Frequency:      1443.53                2182.37                2382.88
 Force Cnst:      1.2816                 2.9155                42.6519
 Red. Mass:       1.0439                 1.0390                12.7492
 IR Active:          YES                    YES                    YES
 IR Intens:        9.756                216.765                 29.286
 Raman Active:       YES                    YES                    YES
               X      Y      Z        X      Y      Z        X      Y      Z
 H         -0.005  0.000 -0.005    0.642  0.000  0.766   -0.004  0.000 -0.004
 Si        -0.006 -0.000 -0.007   -0.022 -0.000 -0.026   -0.000  0.000  0.000
 C         -0.011 -0.000 -0.031   -0.000 -0.000 -0.001    0.000  0.000 -0.000
 C         -0.024 -0.009 -0.018   -0.001 -0.000 -0.001    0.000 -0.000  0.000
 C         -0.024  0.009 -0.018   -0.001  0.000 -0.001    0.000  0.000  0.000
 H          0.007  0.233  0.314   -0.001  0.003 -0.001   -0.000 -0.000  0.000
 H          0.149 -0.000 -0.167   -0.009  0.000  0.002    0.000  0.000 -0.000
 H          0.007 -0.233  0.314   -0.001 -0.003 -0.001   -0.000  0.000  0.000
 H          0.374  0.044  0.001    0.001 -0.001 -0.004    0.000  0.000  0.000
 H          0.073  0.272  0.233   -0.003  0.002  0.000   -0.002  0.001 -0.002
 H         -0.092 -0.187  0.035    0.000  0.007 -0.006    0.001 -0.000 -0.001
 H          0.073 -0.272  0.233   -0.003 -0.002  0.000   -0.002 -0.001 -0.002
 H          0.374 -0.044  0.001    0.001  0.001 -0.004    0.000 -0.000  0.000
 H         -0.092  0.187  0.035    0.000 -0.007 -0.006    0.001  0.000 -0.001
 Br         0.000  0.000  0.000   -0.000  0.000 -0.000   -0.012  0.000  0.005
 C         -0.000 -0.000 -0.000    0.000 -0.000 -0.000    0.732  0.000 -0.309
 N         -0.000 -0.000  0.000   -0.000 -0.000  0.000   -0.559 -0.000  0.236
 TransDip   0.066 -0.000  0.075   -0.362 -0.000 -0.303    0.163 -0.000 -0.059

 Mode:                37                     38                     39
 Frequency:      3047.30                3047.54                3048.62
 Force Cnst:      5.6740                 5.6755                 5.6789
 Red. Mass:       1.0371                 1.0372                 1.0371
 IR Active:          YES                    YES                    YES
 IR Intens:        2.281                  4.144                  4.088
 Raman Active:       YES                    YES                    YES
               X      Y      Z        X      Y      Z        X      Y      Z
 H          0.000 -0.000  0.001    0.000  0.001  0.000   -0.001  0.000  0.000
 Si         0.000  0.000 -0.001    0.000 -0.001 -0.000    0.001 -0.000 -0.000
 C          0.004  0.000 -0.001    0.000 -0.000 -0.000   -0.049  0.000  0.015
 C         -0.004 -0.029  0.021    0.005  0.029 -0.021   -0.000 -0.003  0.002
 C         -0.004  0.029  0.021   -0.005  0.029  0.022   -0.000  0.003  0.002
 H         -0.008 -0.041  0.029    0.001  0.003 -0.002    0.083  0.454 -0.313
 H         -0.034  0.000 -0.039   -0.000 -0.000 -0.000    0.399  0.000  0.456
 H         -0.008  0.041  0.029   -0.001  0.003  0.003    0.083 -0.454 -0.313
 H         -0.053  0.328  0.224    0.052 -0.320 -0.220   -0.005  0.031  0.021
 H          0.374 -0.001 -0.141   -0.373  0.002  0.140    0.030 -0.001 -0.011
 H         -0.270  0.012 -0.328    0.269 -0.012  0.327   -0.025  0.001 -0.030
 H          0.369  0.001 -0.139    0.378  0.001 -0.142    0.030  0.001 -0.011
 H         -0.053 -0.323  0.221   -0.053 -0.324  0.224   -0.005 -0.031  0.021
 H         -0.267 -0.012 -0.324   -0.273 -0.012 -0.331   -0.025 -0.001 -0.030
 Br        -0.000  0.000 -0.000   -0.000 -0.000 -0.000    0.000  0.000  0.000
 C          0.000  0.000 -0.000   -0.000 -0.000 -0.000    0.000 -0.000 -0.000
 N         -0.000 -0.000  0.000   -0.000  0.000  0.000   -0.000  0.000  0.000
 TransDip  -0.003 -0.000  0.048   -0.000  0.065  0.000   -0.062  0.000  0.020

 Mode:                40                     41                     42
 Frequency:      3138.71                3139.42                3141.11
 Force Cnst:      6.3941                 6.3961                 6.4016
 Red. Mass:       1.1016                 1.1015                 1.1012
 IR Active:          YES                    YES                    YES
 IR Intens:        0.445                  8.815                 17.420
 Raman Active:       YES                    YES                    YES
               X      Y      Z        X      Y      Z        X      Y      Z
 H          0.000 -0.001  0.000    0.002  0.000  0.004    0.005  0.000  0.005
 Si        -0.000 -0.000 -0.000   -0.000  0.000 -0.000   -0.001  0.000 -0.001
 C          0.000  0.003  0.000    0.014 -0.000  0.039   -0.027  0.000 -0.077
 C         -0.054 -0.013 -0.034   -0.044 -0.016 -0.034   -0.028 -0.003 -0.011
 C          0.054 -0.013  0.034   -0.044  0.016 -0.034   -0.028  0.003 -0.011
 H         -0.004 -0.020  0.015    0.036  0.161 -0.105   -0.070 -0.311  0.205
 H         -0.000  0.001 -0.000   -0.240 -0.000 -0.261    0.473  0.000  0.511
 H          0.004 -0.021 -0.015    0.036 -0.161 -0.105   -0.070  0.311  0.205
 H         -0.038  0.185  0.117   -0.040  0.210  0.133   -0.011  0.041  0.025
 H          0.345  0.003 -0.143    0.261  0.002 -0.111    0.198  0.003 -0.080
 H          0.345 -0.028  0.433    0.312 -0.026  0.390    0.153 -0.013  0.195
 H         -0.344  0.003  0.143    0.261 -0.002 -0.111    0.198 -0.003 -0.080
 H          0.038  0.185 -0.116   -0.040 -0.211  0.134   -0.011 -0.042  0.025
 H         -0.344 -0.028 -0.432    0.313  0.027  0.391    0.153  0.013  0.196
 Br        -0.000 -0.000  0.000   -0.000  0.000  0.000   -0.000  0.000  0.000
 C          0.000  0.000 -0.000    0.000 -0.000 -0.000    0.000 -0.000 -0.000
 N         -0.000 -0.000  0.000   -0.000 -0.000  0.000   -0.000 -0.000  0.000
 TransDip  -0.000 -0.021 -0.000   -0.092  0.000 -0.025   -0.091  0.000 -0.098

 Mode:                43                     44                     45
 Frequency:      3143.51                3143.94                3145.87
 Force Cnst:      6.4144                 6.4154                 6.4241
 Red. Mass:       1.1017                 1.1016                 1.1017
 IR Active:          YES                    YES                    YES
 IR Intens:        3.015                 14.113                  9.958
 Raman Active:       YES                    YES                    YES
               X      Y      Z        X      Y      Z        X      Y      Z
 H          0.000  0.001  0.000    0.000  0.000 -0.002    0.000  0.002  0.000
 Si         0.000 -0.000 -0.000   -0.000 -0.000  0.001   -0.000 -0.001  0.000
 C         -0.000  0.015 -0.000    0.004  0.000  0.012   -0.000 -0.091 -0.000
 C          0.035 -0.035 -0.042   -0.037  0.034  0.040    0.004 -0.006 -0.008
 C         -0.035 -0.035  0.041   -0.038 -0.035  0.040   -0.004 -0.006  0.008
 H         -0.019 -0.091  0.065    0.011  0.049 -0.033    0.120  0.555 -0.399
 H          0.000  0.002  0.000   -0.069  0.000 -0.075    0.000 -0.015  0.000
 H          0.019 -0.091 -0.065    0.012 -0.050 -0.034   -0.120  0.555  0.399
 H         -0.064  0.445  0.288    0.062 -0.432 -0.279   -0.012  0.082  0.052
 H         -0.414 -0.012  0.156    0.429  0.013 -0.163   -0.052 -0.002  0.019
 H          0.056 -0.009  0.055   -0.043  0.009 -0.039    0.020 -0.002  0.023
 H          0.410 -0.012 -0.155    0.433 -0.014 -0.164    0.052 -0.002 -0.019
 H          0.064  0.441 -0.285    0.063  0.436 -0.282    0.012  0.082 -0.052
 H         -0.055 -0.009 -0.055   -0.044 -0.009 -0.039   -0.020 -0.002 -0.023
 Br         0.000 -0.000 -0.000   -0.000 -0.000  0.000   -0.000 -0.000  0.000
 C         -0.000 -0.000  0.000    0.000 -0.000 -0.000    0.000  0.000 -0.000
 N          0.000  0.000 -0.000   -0.000  0.000  0.000   -0.000  0.000  0.000
 TransDip   0.000 -0.056 -0.000   -0.084 -0.000  0.086   -0.000 -0.101  0.000

 STANDARD THERMODYNAMIC QUANTITIES AT   298.15 K  AND     1.00 ATM

   This Molecule has  0 Imaginary Frequencies
   Zero point vibrational energy:       79.970 kcal/mol

   Atom    1 Element H  Has Mass    1.00783
   Atom    2 Element Si Has Mass   27.97693
   Atom    3 Element C  Has Mass   12.00000
   Atom    4 Element C  Has Mass   12.00000
   Atom    5 Element C  Has Mass   12.00000
   Atom    6 Element H  Has Mass    1.00783
   Atom    7 Element H  Has Mass    1.00783
   Atom    8 Element H  Has Mass    1.00783
   Atom    9 Element H  Has Mass    1.00783
   Atom   10 Element H  Has Mass    1.00783
   Atom   11 Element H  Has Mass    1.00783
   Atom   12 Element H  Has Mass    1.00783
   Atom   13 Element H  Has Mass    1.00783
   Atom   14 Element H  Has Mass    1.00783
   Atom   15 Element Br Has Mass   78.91830
   Atom   16 Element C  Has Mass   12.00000
   Atom   17 Element N  Has Mass   14.00307
   Molecular Mass:   178.976600 amu
   Principal axes and moments of inertia in amu*Bohr^2:
                             1           2           3
    Eigenvalues --      531.54445  4137.87060  4187.98973
          X              -0.99999     0.00000     0.00405
          Y              -0.00000    -1.00000     0.00002
          Z              -0.00405    -0.00002    -0.99999
   Rotational Symmetry Number is   1
   The Molecule is an Asymmetric Top
   Translational Enthalpy:        0.889 kcal/mol
   Rotational Enthalpy:           0.889 kcal/mol
   Vibrational Enthalpy:         86.160 kcal/mol
   gas constant (RT):             0.592 kcal/mol
   Translational Entropy:        41.453  cal/mol.K
   Rotational Entropy:           30.600  cal/mol.K
   Vibrational Entropy:          47.237  cal/mol.K

   Total Enthalpy:               88.530 kcal/mol
   Total Entropy:               119.290  cal/mol.K

   Quasi-RRHO corrections using alpha = 4, and omega = 100 cm^-1
   QRRHO-Vib. Enthalpy:          84.498 kcal/mol
   QRRHO-Vib. Entropy:           39.371  cal/mol.K
   QRRHO-Total Enthalpy:         86.868 kcal/mol
   QRRHO-Total Entropy:         111.424  cal/mol.K
 Total job time:  10551.72s(wall), 130921.11s(cpu) 
 Tue Jun 11 20:39:41 2024

        *************************************************************
        *                                                           *
        *  Thank you very much for using Q-Chem.  Have a nice day.  *
        *                                                           *
        *************************************************************


