
Running Job 1 of 2 water_dimer_vfb_forward.in
qchem water_dimer_vfb_forward.in_2886433.0 /data/scratch/water_dimer_vfb_forward20240611233610/ 1
/opt/qchem/6.1/exe/qcprog.exe_s water_dimer_vfb_forward.in_2886433.0 /data/scratch/water_dimer_vfb_forward20240611233610/
                  Welcome to Q-Chem
     A Quantum Leap Into The Future Of Chemistry


 Q-Chem 6.1, Q-Chem, Inc., Pleasanton, CA (2023)

 E. Epifanovsky,  A. T. B. Gilbert,  Xintian Feng,  Joonho Lee,  Yuezhi Mao,  
 N. Mardirossian,  P. Pokhilko,  A. White,  M. Wormit,  M. P. Coons,  
 A. L. Dempwolff,  Zhengting Gan,  D. Hait,  P. R. Horn,  L. D. Jacobson,  
 I. Kaliman,  J. Kussmann,  A. W. Lange,  Ka Un Lao,  D. S. Levine,  Jie Liu,  
 S. C. McKenzie,  A. F. Morrison,  K. D. Nanda,  F. Plasser,  D. R. Rehn,  
 M. L. Vidal,  Zhi-Qiang You,  Ying Zhu,  B. Alam,  B. Albrecht,  
 A. Aldossary,  E. Alguire,  J. H. Andersen,  V. Athavale,  D. Barton,  
 K. Begam,  A. Behn,  N. Bellonzi,  Y. A. Bernard,  E. J. Berquist,  
 H. Burton,  A. Carreras,  K. Carter-Fenk,  Mathew Chow,  Romit Chakraborty,  
 Chandrima Chakravarty,  Junhan Chen,  A. D. Chien,  K. D. Closser,  
 V. Cofer-Shabica,  L. Cunha,  S. Dasgupta,  Jia Deng,  M. de Wergifosse,  
 M. Diedenhofen,  Hainam Do,  S. Ehlert,  Po-Tung Fang,  S. Fatehi,  
 Qingguo Feng,  T. Friedhoff,  Thomas Froitzheim,  B. Ganoe,  J. Gayvert,  
 Qinghui Ge,  G. Gidofalvi,  M. Gimferrer,  M. Goldey,  Montgomery Gray,  
 J. Gomes,  C. Gonzalez-Espinoza,  S. Gulania,  A. Gunina,  J. A. Gyamfi,  
 M. W. D. Hanson-Heine,  P. H. P. Harbach,  A. W. Hauser,  M. F. Herbst,  
 M. Hernandez Vera,  M. Hodecker,  Z. C. Holden,  S. Houck,  Xunkun Huang,  
 Kerwin Hui,  B. C. Huynh,  K. Ikeda,  M. Ivanov,  Hyunjun Ji,  Zuxin Jin,  
 Hanjie Jiang,  Subrata Jana,  B. Kaduk,  S. Kaehler,  R. Kang,  
 K. Khistyaev,  Jaehoon Kim,  Yongbin Kim,  P. Klunzinger,  Z. Koczor-Benda,  
 Joong Hoon Koh,  D. Kosenkov,  Saikiran Kotaru,  L. Koulias,  T. Kowalczyk,  
 C. M. Krauter,  K. Kue,  A. Kunitsa,  T. Kus,  A. Landau,  K. V. Lawler,  
 D. Lefrancois,  S. Lehtola,  Rain Li,  Shaozhi Li,  Yi-Pei Li,  
 Jiashu Liang,  M. Liebenthal,  Hung-Hsuan Lin,  You-Sheng Lin,  Fenglai Liu,  
 Kuan-Yu Liu,  Xiao Liu,  M. Loipersberger,  A. Luenser,  C. Malbon,  
 A. Manjanath,  P. Manohar,  E. Mansoor,  S. F. Manzer,  Shan-Ping Mao,  
 A. V. Marenich,  T. Markovich,  S. Mason,  F. Matz,  S. A. Maurer,  
 P. F. McLaughlin,  M. F. S. J. Menger,  J.-M. Mewes,  S. A. Mewes,  
 P. Morgante,  Mohammad Mostafanejad,  J. W. Mullinax,  K. J. Oosterbaan,  
 G. Paran,  V. Parravicini,  Alexander C. Paul,  Suranjan K. Paul,  
 F. Pavosevic,  Zheng Pei,  S. Prager,  E. I. Proynov,  E. Ramos,  B. Rana,  
 A. E. Rask,  A. Rettig,  R. M. Richard,  F. Rob,  E. Rossomme,  T. Scheele,  
 M. Scheurer,  M. Schneider,  P. E. Schneider,  Tim K. Schramm,  N. Sergueev,  
 S. M. Sharada,  M. Sharma,  Hengyuan Shen,  W. Skomorowski,  D. W. Small,  
 C. J. Stein,  Alistair J. Sterling,  Yingli Su,  Yu-Chuan Su,  
 E. J. Sundstrom,  J. Talbot,  Zhen Tao,  J. Thirman,  Hung-Yi Tsai,  
 T. Tsuchimochi,  N. M. Tubman,  C. Utku,  S. P. Veccham,  O. Vydrov,  
 J. Wenzel,  Jonathan Wong,  J. Witte,  A. Yamada,  Chou-Hsun Yang,  Kun Yao,  
 S. Yeganeh,  S. R. Yost,  A. Zech,  F. Zeller,  Igor Ying Zhang,  
 Xing Zhang,  Yu Zhang,  D. Zuev,  A. Aspuru-Guzik,  A. T. Bell,  
 N. A. Besley,  K. B. Bravaya,  B. R. Brooks,  D. Casanova,  Jeng-Da Chai,  
 Hsing-Ta Chen,  S. Coriani,  C. J. Cramer,  A. E. DePrince, III,  
 R. A. DiStasio Jr.,  A. Dreuw,  B. D. Dunietz,  T. R. Furlani,  
 W. A. Goddard III,  S. Grimme,  S. Hammes-Schiffer,  T. Head-Gordon,  
 W. J. Hehre,  Chao-Ping Hsu,  T.-C. Jagau,  Yousung Jung,  A. Klamt,  
 Jing Kong,  D. S. Lambrecht,  Xiangyuan Li,  WanZhen Liang,  N. J. Mayhall,  
 C. W. McCurdy,  J. B. Neaton,  T. Neudecker,  C. Ochsenfeld,  
 J. A. Parkhill,  R. Peverati,  V. A. Rassolov,  Haisheng Ren,  Yihan Shao,  
 L. V. Slipchenko,  R. P. Steele,  J. E. Subotnik,  A. J. W. Thom,  
 A. Tkatchenko,  D. G. Truhlar,  T. Van Voorhis,  Fan Wang,  
 T. A. Wesolowski,  K. B. Whaley,  H. L. Woodcock III,  P. M. Zimmerman,  
 S. Faraji,  P. M. W. Gill,  M. Head-Gordon,  J. M. Herbert,  A. I. Krylov

 Contributors to earlier versions of Q-Chem not listed above: 
 R. D. Adamson,  B. Austin,  R. Baer,  J. Baker,  G. J. O. Beran,  
 K. Brandhorst,  S. T. Brown,  E. F. C. Byrd,  Arup K. Chakraborty,  
 G. K. L. Chan,  Chun-Min Chang,  Yunqing Chen,  C.-L. Cheng,  
 Siu Hung Chien,  D. M. Chipman,  D. L. Crittenden,  H. Dachsel,  
 R. J. Doerksen,  A. D. Dutoi,  R. G. Edgar,  J. Fosso-Tande,  
 L. Fusti-Molnar,  D. Ghosh,  A. Ghysels,  A. Golubeva-Zadorozhnaya,  
 J. Gonthier,  M. S. Gordon,  S. R. Gwaltney,  G. Hawkins,  J. E. Herr,  
 A. Heyden,  S. Hirata,  E. G. Hohenstein,  G. Kedziora,  F. J. Keil,  
 C. Kelley,  Jihan Kim,  R. A. King,  R. Z. Khaliullin,  P. P. Korambath,  
 W. Kurlancheek,  A. Laurent,  A. M. Lee,  M. S. Lee,  S. V. Levchenko,  
 Ching Yeh Lin,  D. Liotard,  E. Livshits,  R. C. Lochan,  I. Lotan,  
 L. A. Martinez-Martinez,  P. E. Maslen,  N. Nair,  D. P. O'Neill,  
 D. Neuhauser,  E. Neuscamman,  C. M. Oana,  R. Olivares-Amaya,  R. Olson,  
 T. M. Perrine,  B. Peters,  P. A. Pieniazek,  A. Prociuk,  Y. M. Rhee,  
 J. Ritchie,  M. A. Rohrdanz,  E. Rosta,  N. J. Russ,  H. F. Schaefer III,  
 M. W. Schmidt,  N. E. Schultz,  S. Sharma,  N. Shenvi,  C. D. Sherrill,  
 A. C. Simmonett,  A. Sodt,  T. Stein,  D. Stuck,  K. S. Thanthiriwatte,  
 V. Vanovschi,  L. Vogt,  Tao Wang,  A. Warshel,  M. A. Watson,  
 C. F. Williams,  Q. Wu,  X. Xu,  Jun Yang,  W. Zhang,  Yan Zhao

   Please cite Q-Chem as follows:
  "Software for the frontiers of quantum chemistry:
   An overview of developments in the Q-Chem 5 package"
   J. Chem. Phys. 155, 084801 (2021)
   https://doi.org/10.1063/5.0055522 (open access)

 Q-Chem 6.1.1 for Intel X86 EM64T Linux

 Parts of Q-Chem use Armadillo 9.900.5 (Nocturnal Misbehaviour).
 http://arma.sourceforge.net/

 Q-Chem begins on Tue Jun 11 23:36:11 2024  

 Host: 
0

     Scratch files written to /data/scratch/water_dimer_vfb_forward20240611233610//
 Jan1824 |scratch|qcdevops|jenkins|workspace|build_RNUM -1
 Processing $rem in /opt/qchem/6.1/config/preferences:
 Processing $rem in /home/ymao/.qchemrc:

 Checking the input file for inconsistencies... 	...done.

--------------------------------------------------------------
User input:
--------------------------------------------------------------
$molecule
0 1
--
0 1
O   -1.5159833896  -0.1193890907   0.0000000000
H   -1.9250204525   0.7508887318   0.0000000000
H   -0.5596244397   0.0434521346   0.0000000000
--
0 1
O    1.3771370726   0.0974879313   0.0000000000
H    1.7557156045  -0.3445398535   0.7677278624
H    1.7557156045  -0.3445398535  -0.7677278624
$end

$rem
JOBTYPE  OPT
GEN_SCFMAN  TRUE
VFB_CTA  FORWARD
METHOD  WB97X-V
BASIS  DEF2-SVPD
UNRESTRICTED  FALSE
MAX_SCF_CYCLES  2000
THRESH  14
SCF_CONVERGENCE  9
MEM_TOTAL  8000
MEM_STATIC  2000
SCF_GUESS  FRAGMO
SYMMETRY  FALSE
SYM_IGNORE  FALSE
SCF_ALGORITHM  DIIS
BASIS_LIN_DEP_THRESH  6
IDERIV  1
SCFMI_MODE  0
XC_GRID  000075000302
NL_GRID  1
FD_MAT_VEC_PROD  FALSE
GEOM_OPT_TOL_GRADIENT  50
GEOM_OPT_TOL_DISPLACEMENT  50
GEOM_OPT_TOL_ENERGY  10
GEOM_OPT_DRIVER  OPTIMIZE
GEOM_OPT_MAX_CYCLES  200
$end

--------------------------------------------------------------
 ----------------------------------------------------------------
             Standard Nuclear Orientation (Angstroms)
    I     Atom           X                Y                Z
 ----------------------------------------------------------------
    1      O      -1.5113456744     0.1214764909     0.0000000000
    2      H      -1.9235953655    -0.7472841202    -0.0000000000
    3      H      -0.5555949024    -0.0448970874    -0.0000000000
    4      O       1.3809537443    -0.1060882783    -0.0000000000
    5      H       1.7611628546     0.3345377534    -0.7677278624
    6      H       1.7611628546     0.3345377534     0.7677278624
 ----------------------------------------------------------------
 Molecular Point Group                 Cs    NOp =  2
 Largest Abelian Subgroup              Cs    NOp =  2
 Nuclear Repulsion Energy =          36.57215600 hartrees
 There are       10 alpha and       10 beta electrons
 Requested basis set is def2-SVPD
 There are 34 shells and 78 basis functions

 Total QAlloc Memory Limit   8000 MB
 Mega-Array Size      1956 MB
 MEM_STATIC part      2000 MB

 A cutoff of  1.0D-14 yielded    594 shell pairs
 There are      3162 function pairs (      3504 Cartesian)
 Smallest overlap matrix eigenvalue = 1.55E-03

 Scale SEOQF with 1.000000e-01/1.000000e-01/1.000000e-01

 Standard Electronic Orientation quadrupole field applied
 Nucleus-field energy     =     0.0000000015 hartrees
 Attempting to make child job directory: /data/scratch/water_dimer_vfb_forward20240611233610//Frg1/
 Attempting to make child job directory: /data/scratch/water_dimer_vfb_forward20240611233610//Frg2/
 Creating input file /data/scratch/water_dimer_vfb_forward20240611233610/Frg1.input
 using default PutDataFrgm: nothing
 calling putenv with: QCSCRATCH=/data/scratch/water_dimer_vfb_forward20240611233610/ 
 Spawning Job For Fragment 0
 Done Job For Fragment 0
 calling putenv with: QCSCRATCH=/data/scratch 
 calling putenv with: QCTHREADS=16 
 Creating input file /data/scratch/water_dimer_vfb_forward20240611233610/Frg2.input
 using default PutDataFrgm: nothing
 calling putenv with: QCSCRATCH=/data/scratch/water_dimer_vfb_forward20240611233610/ 
 Spawning Job For Fragment 1
 Done Job For Fragment 1
 calling putenv with: QCSCRATCH=/data/scratch 
 calling putenv with: QCTHREADS=16 
 Time for running child jobs:  CPU 2.76 s  wall 4.69 s

 -----------------------------------------------------------------------
  General SCF calculation program by
  Eric Jon Sundstrom, Paul Horn, Yuezhi Mao, Dmitri Zuev, Alec White,
  David Stuck, Shaama M.S., Shane Yost, Joonho Lee, David Small,
  Daniel Levine, Susi Lehtola, Hugh Burton, Evgeny Epifanovsky,
  Bang C. Huynh
 -----------------------------------------------------------------------
Performing Restricted Closed Shell SCFMI
Doing General SCFMI
 Exchange:     0.1670 Hartree-Fock + 1.0000 wB97X-V + LR-HF
 Correlation:  1.0000 wB97X-V
 Using Euler-Maclaurin-Lebedev (75,302) quadrature formula
 Nonlocal Correlation:  VV10 with C = 0.0100 and b = 6.00 and scale = 1.00000
 Grid used for NLC:  SG-1 standard quadrature
performing fock build before subrot guess so that all methods have access
 using 16 threads for integral computing
 -------------------------------------------------------
 OpenMP Integral computing Module                
 Release: version 1.0, May 2013, Q-Chem Inc. Pittsburgh 
 -------------------------------------------------------
Printing subrot_rss_gen Method Specification:
Occupied Subspace Method is 0
Virtual Subspace Method is 0
Energy prior to optimization (guess energy) = -152.702268208700
Begin Timing: Total SCF Calculation
begin iterations for algorithm: DIIS         
the SCF tolerance is set to 1.00e-09
    1    -152.7022682087      7.71e-04     00000 
    2    -152.7040121384      2.19e-04     00000 
    3    -152.7041443411      9.11e-05     00000 
    4    -152.7041611608      5.43e-05     00000 
    5    -152.7041656980      2.00e-05     00000 
    6    -152.7041667538      4.10e-06     00000 
    7    -152.7041667916      1.06e-06     00000 
    8    -152.7041667934      6.91e-07     00000 
    9    -152.7041667941      1.52e-07     00000 
   10    -152.7041667942      4.49e-08     00000 
   11    -152.7041667942      1.07e-08     00000 
   12    -152.7041667942      2.48e-09     00000 
   13    -152.7041667942      6.31e-10     00000 Convergence criterion met
write pseudocanon occs and virts to disk
write pseudocanon orbital energies to disk
Timing for Total SCF: 4.00s (wall), 58.24s (cpu)
SCFMI Energy    -152.7041667942
<S^2>            0.00000
====================================================================
           Variational forward-backward (VFB) CT analysis           
 M. Loipersberger, Y. Mao and M. Head-Gordon, JCTC, 16, 1073 (2020) 
====================================================================
Calculating stabilization due to the forward (1->2) CT
Requested donor fragment: 1
updated OccSS dimension
        5
        5
updated VirtSS dimension
        68
        34
Energy prior to optimization (guess energy) = -152.704166794210
Begin Timing: Total SCF Calculation
begin iterations for algorithm: DIIS         
the SCF tolerance is set to 1.00e-09
    1    -152.7041667942      5.68e-04     00000 
    2    -152.7044664960      2.73e-05     00000 
    3    -152.7044712072      7.65e-06     00000 
    4    -152.7044713871      5.99e-06     00000 
    5    -152.7044714795      5.76e-07     00000 
    6    -152.7044714813      1.20e-07     00000 
    7    -152.7044714814      6.18e-08     00000 
    8    -152.7044714814      1.84e-08     00000 
    9    -152.7044714814      2.85e-09     00000 
   10    -152.7044714814      6.68e-10     00000 Convergence criterion met
write pseudocanon occs and virts to disk
write pseudocanon orbital energies to disk
Timing for Total SCF: 2.00s (wall), 43.68s (cpu)
Energy of the one-side CT state:     -152.7044714814
Stabilization due to one-side CT:    -0.8000 kJ/mol
<S^2>            0.00000
 Total energy in the final basis set =     -152.7044714814
    ==================================================
        The end of Object-Oriented SCFman: SCFMI      
    ==================================================
 
 --------------------------------------------------------------
             Orbital Energies (a.u.) and Symmetries
 --------------------------------------------------------------
 
 Alpha MOs, Restricted
 -- Occupied --                  
-19.259 -19.209  -1.156  -1.104  -0.673  -0.628  -0.533  -0.479
  1 A'    2 A'    3 A'    4 A'    1 A"    5 A'    6 A'    7 A'                 
 -0.453  -0.407
  8 A'    2 A"                                                                 
 -- Virtual --                   
  0.062   0.109   0.122   0.149   0.174   0.191   0.210   0.230
  9 A'   10 A'    3 A"   11 A'   12 A'    4 A"   13 A'   14 A'                 
  0.240   0.269   0.288   0.291   0.314   0.335   0.358   0.392
  5 A"   15 A'    6 A"   16 A'   17 A'   18 A'    7 A"   19 A'                 
  0.419   0.437   0.448   0.449   0.485   0.490   0.499   0.605
  8 A"   20 A'   21 A'    9 A"   10 A"   22 A'   23 A'   24 A'                 
  0.611   0.641   0.678   0.683   0.683   0.724   0.747   0.758
 11 A"   25 A'   26 A'   27 A'   12 A"   13 A"   28 A'   14 A"                 
  0.779   0.864   1.041   1.067   1.109   1.175   1.315   1.435
 29 A'   30 A'   31 A'   32 A'   15 A"   33 A'   34 A'   16 A"                 
  1.435   1.618   1.619   1.666   1.739   1.795   1.844   1.863
 35 A'   36 A'   17 A"   37 A'   38 A'   18 A"   19 A"   39 A'                 
  1.973   2.026   2.059   2.061   2.121   2.166   2.338   2.449
 40 A'   20 A"   41 A'   21 A"   42 A'   43 A'   22 A"   44 A'                 
  2.479   2.604   3.123   3.127   3.141   3.204   3.295   3.337
 45 A'   46 A'   47 A'   23 A"   24 A"   25 A"   48 A'   49 A'                 
  3.728   3.804   4.113   4.196
 50 A'   51 A'   26 A"   52 A'                                                 
 
 Beta MOs, Restricted
 -- Occupied --                  
-19.259 -19.209  -1.156  -1.104  -0.673  -0.628  -0.533  -0.479
  1 A'    2 A'    3 A'    4 A'    1 A"    5 A'    6 A'    7 A'                 
 -0.453  -0.407
  8 A'    2 A"                                                                 
 -- Virtual --                   
  0.062   0.109   0.122   0.149   0.174   0.191   0.210   0.230
  9 A'   10 A'    3 A"   11 A'   12 A'    4 A"   13 A'   14 A'                 
  0.240   0.269   0.288   0.291   0.314   0.335   0.358   0.392
  5 A"   15 A'    6 A"   16 A'   17 A'   18 A'    7 A"   19 A'                 
  0.419   0.437   0.448   0.449   0.485   0.490   0.499   0.605
  8 A"   20 A'   21 A'    9 A"   10 A"   22 A'   23 A'   24 A'                 
  0.611   0.641   0.678   0.683   0.683   0.724   0.747   0.758
 11 A"   25 A'   26 A'   27 A'   12 A"   13 A"   28 A'   14 A"                 
  0.779   0.864   1.041   1.067   1.109   1.175   1.315   1.435
 29 A'   30 A'   31 A'   32 A'   15 A"   33 A'   34 A'   16 A"                 
  1.435   1.618   1.619   1.666   1.739   1.795   1.844   1.863
 35 A'   36 A'   17 A"   37 A'   38 A'   18 A"   19 A"   39 A'                 
  1.973   2.026   2.059   2.061   2.121   2.166   2.338   2.449
 40 A'   20 A"   41 A'   21 A"   42 A'   43 A'   22 A"   44 A'                 
  2.479   2.604   3.123   3.127   3.141   3.204   3.295   3.337
 45 A'   46 A'   47 A'   23 A"   24 A"   25 A"   48 A'   49 A'                 
  3.728   3.804   4.113   4.196
 50 A'   51 A'   26 A"   52 A'                                                 
 --------------------------------------------------------------
 
          Ground-State Mulliken Net Atomic Charges

     Atom                 Charge (a.u.)
  ----------------------------------------
      1 O                    -0.263004
      2 H                     0.145842
      3 H                     0.129304
      4 O                    -0.283300
      5 H                     0.135579
      6 H                     0.135579
  ----------------------------------------
  Sum of atomic charges =     0.000000

 -----------------------------------------------------------------
                    Cartesian Multipole Moments
 -----------------------------------------------------------------
    Charge (ESU x 10^10)
                 0.0000
    Dipole Moment (Debye)
         X       2.6434      Y      -0.2390      Z      -0.0000
       Tot       2.6542
    Quadrupole Moments (Debye-Ang)
        XX     -11.1658     XY       6.1334     YY     -13.2720
        XZ       0.0000     YZ      -0.0000     ZZ     -12.2732
    Octopole Moments (Debye-Ang^2)
       XXX       8.8083    XXY      -1.5186    XYY      -1.1452
       YYY      -0.7548    XXZ      -0.0000    XYZ      -0.0000
       YYZ      -0.0000    XZZ       6.3150    YZZ       0.7365
       ZZZ       0.0000
    Hexadecapole Moments (Debye-Ang^3)
      XXXX    -170.5459   XXXY      24.2676   XXYY     -31.4518
      XYYY       4.7292   YYYY     -15.8928   XXXZ       0.0000
      XXYZ      -0.0000   XYYZ      -0.0000   YYYZ       0.0000
      XXZZ     -29.1493   XYZZ       2.4275   YYZZ      -5.2377
      XZZZ       0.0000   YZZZ       0.0000   ZZZZ     -14.8035
 -----------------------------------------------------------------
 Calculating analytic gradient of the SCF energy
 Gradient of SCF Energy
            1           2           3           4           5           6
    1  -0.0036316  -0.0001242   0.0075356  -0.0033139  -0.0002329  -0.0002329
    2   0.0004947   0.0000851  -0.0005905  -0.0002048   0.0001078   0.0001078
    3   0.0000000  -0.0000000   0.0000000  -0.0000000  -0.0002356   0.0002356
 Max gradient component =       7.536E-03
 RMS gradient           =       2.133E-03
 Gradient time:  CPU 13.50 s  wall 0.85 s
 Geometry Optimization Parameters
   NAtoms,    NIC,     NZ,  NCons,   NDum,   NFix, NCnnct, MaxDiis
        6      25       0       0       0       0       0       0


** GEOMETRY OPTIMIZATION IN DELOCALIZED INTERNAL COORDINATES **
   Searching for a Minimum

   Optimization Cycle:   1

                       Coordinates (Angstroms)
     ATOM                X               Y               Z
      1  O        -1.5113456744    0.1214764909    0.0000000000
      2  H        -1.9235953655   -0.7472841202    0.0000000000
      3  H        -0.5555949024   -0.0448970874    0.0000000000
      4  O         1.3809537443   -0.1060882783    0.0000000000
      5  H         1.7611628546    0.3345377534   -0.7677278624
      6  H         1.7611628546    0.3345377534    0.7677278624
   Point Group: cs    Number of degrees of freedom:     8


   Energy is   -152.704471481


 Attempting to generate delocalized internal coordinates
 Initial Hessian constructed with Jon Baker's OPTIMIZE code

  8 Hessian modes will be used to form the next step
  Hessian Eigenvalues:
     0.047844    0.073968    0.160000    0.160001    0.199780    0.533505
     0.547490    0.551284

 Minimum search - taking simple RFO step
 Searching for Lamda that Minimizes Along All modes
 Value Taken    Lamda =  -0.00032750
 Step Taken.  Stepsize is  0.078969

                             Maximum     Tolerance    Cnvgd?
         Gradient           0.003730      0.000050      NO
         Displacement       0.049949      0.000050      NO
         Energy change     *********      0.000000      NO


 New Cartesian Coordinates Obtained by Inverse Iteration

 Displacement from previous Coordinates is:  0.092684
 ----------------------------------------------------------------
             Standard Nuclear Orientation (Angstroms)
    I     Atom           X                Y                Z
 ----------------------------------------------------------------
    1      O      -1.5311520071     0.1188677496     0.0000000000
    2      H      -1.9398843356    -0.7515787691     0.0000000000
    3      H      -0.5787226424    -0.0446071368     0.0000000000
    4      O       1.3994372856    -0.1028847287     0.0000000000
    5      H       1.7815326053     0.3362426983    -0.7674745140
    6      H       1.7815326053     0.3362426983     0.7674745140
 ----------------------------------------------------------------
 Molecular Point Group                 Cs    NOp =  2
 Largest Abelian Subgroup              Cs    NOp =  2
 Nuclear Repulsion Energy =          36.34408166 hartrees
 There are       10 alpha and       10 beta electrons
 Applying Cartesian multipole field
    Component          Value
    ---------          -----
     (2,0,0)        1.00000E-11
     (0,2,0)        2.00000E-11
     (0,0,2)       -3.00000E-11
 Nucleus-field energy     =     0.0000000015 hartrees
 Requested basis set is def2-SVPD
 There are 34 shells and 78 basis functions
 A cutoff of  1.0D-14 yielded    594 shell pairs
 There are      3162 function pairs (      3504 Cartesian)
 Smallest overlap matrix eigenvalue = 1.56E-03
 Attempting to make child job directory: /data/scratch/water_dimer_vfb_forward20240611233610//Frg1/
 Failed to make child job directory:     /data/scratch/water_dimer_vfb_forward20240611233610//Frg1/
 Attempting to make child job directory: /data/scratch/water_dimer_vfb_forward20240611233610//Frg2/
 Failed to make child job directory:     /data/scratch/water_dimer_vfb_forward20240611233610//Frg2/
 Creating input file /data/scratch/water_dimer_vfb_forward20240611233610/Frg1.input
 using default PutDataFrgm: nothing
 calling putenv with: QCSCRATCH=/data/scratch/water_dimer_vfb_forward20240611233610/ 
 Spawning Job For Fragment 0
 Done Job For Fragment 0
 calling putenv with: QCSCRATCH=/data/scratch 
 calling putenv with: QCTHREADS=16 
 Creating input file /data/scratch/water_dimer_vfb_forward20240611233610/Frg2.input
 using default PutDataFrgm: nothing
 calling putenv with: QCSCRATCH=/data/scratch/water_dimer_vfb_forward20240611233610/ 
 Spawning Job For Fragment 1
 Done Job For Fragment 1
 calling putenv with: QCSCRATCH=/data/scratch 
 calling putenv with: QCTHREADS=16 
 Time for running child jobs:  CPU 2.49 s  wall 4.61 s

 -----------------------------------------------------------------------
  General SCF calculation program by
  Eric Jon Sundstrom, Paul Horn, Yuezhi Mao, Dmitri Zuev, Alec White,
  David Stuck, Shaama M.S., Shane Yost, Joonho Lee, David Small,
  Daniel Levine, Susi Lehtola, Hugh Burton, Evgeny Epifanovsky,
  Bang C. Huynh
 -----------------------------------------------------------------------
Performing Restricted Closed Shell SCFMI
Doing General SCFMI
 Exchange:     0.1670 Hartree-Fock + 1.0000 wB97X-V + LR-HF
 Correlation:  1.0000 wB97X-V
 Using Euler-Maclaurin-Lebedev (75,302) quadrature formula
 Nonlocal Correlation:  VV10 with C = 0.0100 and b = 6.00 and scale = 1.00000
 Grid used for NLC:  SG-1 standard quadrature
performing fock build before subrot guess so that all methods have access
Printing subrot_rss_gen Method Specification:
Occupied Subspace Method is 0
Virtual Subspace Method is 0
Energy prior to optimization (guess energy) = -152.702778057756
Begin Timing: Total SCF Calculation
begin iterations for algorithm: DIIS         
the SCF tolerance is set to 1.00e-09
    1    -152.7027780578      7.25e-04     00000 
    2    -152.7043168659      2.07e-04     00000 
    3    -152.7044324595      8.38e-05     00000 
    4    -152.7044466196      4.97e-05     00000 
    5    -152.7044502829      1.88e-05     00000 
    6    -152.7044511032      3.57e-06     00000 
    7    -152.7044511306      7.20e-07     00000 
    8    -152.7044511320      2.66e-07     00000 
    9    -152.7044511322      1.45e-07     00000 
   10    -152.7044511322      4.29e-08     00000 
   11    -152.7044511322      8.41e-09     00000 
   12    -152.7044511322      1.99e-09     00000 
   13    -152.7044511322      4.99e-10     00000 Convergence criterion met
write pseudocanon occs and virts to disk
write pseudocanon orbital energies to disk
Timing for Total SCF: 4.00s (wall), 57.88s (cpu)
SCFMI Energy    -152.7044511322
<S^2>            0.00000
====================================================================
           Variational forward-backward (VFB) CT analysis           
 M. Loipersberger, Y. Mao and M. Head-Gordon, JCTC, 16, 1073 (2020) 
====================================================================
Calculating stabilization due to the forward (1->2) CT
Requested donor fragment: 1
updated OccSS dimension
        5
        5
updated VirtSS dimension
        68
        34
Energy prior to optimization (guess energy) = -152.704451132200
Begin Timing: Total SCF Calculation
begin iterations for algorithm: DIIS         
the SCF tolerance is set to 1.00e-09
    1    -152.7044511322      5.62e-04     00000 
    2    -152.7047343962      2.57e-05     00000 
    3    -152.7047385895      6.79e-06     00000 
    4    -152.7047387397      5.42e-06     00000 
    5    -152.7047388151      5.29e-07     00000 
    6    -152.7047388165      1.09e-07     00000 
    7    -152.7047388167      5.09e-08     00000 
    8    -152.7047388167      1.77e-08     00000 
    9    -152.7047388167      2.53e-09     00000 
   10    -152.7047388167      5.96e-10     00000 Convergence criterion met
write pseudocanon occs and virts to disk
write pseudocanon orbital energies to disk
Timing for Total SCF: 3.00s (wall), 43.66s (cpu)
Energy of the one-side CT state:     -152.7047388167
Stabilization due to one-side CT:    -0.7553 kJ/mol
<S^2>            0.00000
 Total energy in the final basis set =     -152.7047388167
    ==================================================
        The end of Object-Oriented SCFman: SCFMI      
    ==================================================
 
 --------------------------------------------------------------
             Orbital Energies (a.u.) and Symmetries
 --------------------------------------------------------------
 
 Alpha MOs, Restricted
 -- Occupied --                  
-19.259 -19.210  -1.155  -1.106  -0.672  -0.628  -0.532  -0.480
  1 A'    2 A'    3 A'    4 A'    1 A"    5 A'    6 A'    7 A'                 
 -0.453  -0.408
  8 A'    2 A"                                                                 
 -- Virtual --                   
  0.062   0.108   0.122   0.149   0.174   0.191   0.209   0.229
  9 A'   10 A'    3 A"   11 A'   12 A'    4 A"   13 A'   14 A'                 
  0.240   0.269   0.288   0.290   0.314   0.333   0.357   0.391
  5 A"   15 A'    6 A"   16 A'   17 A'   18 A'    7 A"   19 A'                 
  0.420   0.436   0.447   0.447   0.485   0.489   0.499   0.606
  8 A"   20 A'    9 A"   21 A'   10 A"   22 A'   23 A'   24 A'                 
  0.610   0.640   0.679   0.683   0.683   0.724   0.747   0.756
 11 A"   25 A'   26 A'   27 A'   12 A"   13 A"   28 A'   14 A"                 
  0.778   0.857   1.040   1.068   1.109   1.174   1.313   1.432
 29 A'   30 A'   31 A'   32 A'   15 A"   33 A'   34 A'   16 A"                 
  1.432   1.614   1.619   1.665   1.739   1.796   1.842   1.862
 35 A'   36 A'   17 A"   37 A'   38 A'   18 A"   19 A"   39 A'                 
  1.975   2.028   2.053   2.058   2.121   2.162   2.339   2.445
 40 A'   20 A"   21 A"   41 A'   42 A'   43 A'   22 A"   44 A'                 
  2.479   2.588   3.126   3.126   3.142   3.204   3.296   3.338
 45 A'   46 A'   47 A'   23 A"   24 A"   25 A"   48 A'   49 A'                 
  3.729   3.802   4.114   4.197
 50 A'   51 A'   26 A"   52 A'                                                 
 
 Beta MOs, Restricted
 -- Occupied --                  
-19.259 -19.210  -1.155  -1.106  -0.672  -0.628  -0.532  -0.480
  1 A'    2 A'    3 A'    4 A'    1 A"    5 A'    6 A'    7 A'                 
 -0.453  -0.408
  8 A'    2 A"                                                                 
 -- Virtual --                   
  0.062   0.108   0.122   0.149   0.174   0.191   0.209   0.229
  9 A'   10 A'    3 A"   11 A'   12 A'    4 A"   13 A'   14 A'                 
  0.240   0.269   0.288   0.290   0.314   0.333   0.357   0.391
  5 A"   15 A'    6 A"   16 A'   17 A'   18 A'    7 A"   19 A'                 
  0.420   0.436   0.447   0.447   0.485   0.489   0.499   0.606
  8 A"   20 A'    9 A"   21 A'   10 A"   22 A'   23 A'   24 A'                 
  0.610   0.640   0.679   0.683   0.683   0.724   0.747   0.756
 11 A"   25 A'   26 A'   27 A'   12 A"   13 A"   28 A'   14 A"                 
  0.778   0.857   1.040   1.068   1.109   1.174   1.313   1.432
 29 A'   30 A'   31 A'   32 A'   15 A"   33 A'   34 A'   16 A"                 
  1.432   1.614   1.619   1.665   1.739   1.796   1.842   1.862
 35 A'   36 A'   17 A"   37 A'   38 A'   18 A"   19 A"   39 A'                 
  1.975   2.028   2.053   2.058   2.121   2.162   2.339   2.445
 40 A'   20 A"   21 A"   41 A'   42 A'   43 A'   22 A"   44 A'                 
  2.479   2.588   3.126   3.126   3.142   3.204   3.296   3.338
 45 A'   46 A'   47 A'   23 A"   24 A"   25 A"   48 A'   49 A'                 
  3.729   3.802   4.114   4.197
 50 A'   51 A'   26 A"   52 A'                                                 
 --------------------------------------------------------------
 
          Ground-State Mulliken Net Atomic Charges

     Atom                 Charge (a.u.)
  ----------------------------------------
      1 O                    -0.257762
      2 H                     0.146515
      3 H                     0.123771
      4 O                    -0.284371
      5 H                     0.135923
      6 H                     0.135923
  ----------------------------------------
  Sum of atomic charges =     0.000000

 -----------------------------------------------------------------
                    Cartesian Multipole Moments
 -----------------------------------------------------------------
    Charge (ESU x 10^10)
                 0.0000
    Dipole Moment (Debye)
         X       2.6257      Y      -0.2418      Z       0.0000
       Tot       2.6368
    Quadrupole Moments (Debye-Ang)
        XX     -11.1393     XY       6.1877     YY     -13.2498
        XZ       0.0000     YZ       0.0000     ZZ     -12.2712
    Octopole Moments (Debye-Ang^2)
       XXX       9.0938    XXY      -1.5319    XYY      -1.1981
       YYY      -0.7769    XXZ       0.0000    XYZ       0.0000
       YYZ      -0.0000    XZZ       6.3625    YZZ       0.7396
       ZZZ      -0.0000
    Hexadecapole Moments (Debye-Ang^3)
      XXXX    -174.5682   XXXY      24.8144   XXYY     -32.0945
      XYYY       4.6365   YYYY     -15.8554   XXXZ       0.0000
      XXYZ      -0.0000   XYYZ      -0.0000   YYYZ      -0.0000
      XXZZ     -29.7960   XYZZ       2.4010   YYZZ      -5.2302
      XZZZ      -0.0000   YZZZ      -0.0000   ZZZZ     -14.7933
 -----------------------------------------------------------------
 Calculating analytic gradient of the SCF energy
 Gradient of SCF Energy
            1           2           3           4           5           6
    1  -0.0004356   0.0000053   0.0030297  -0.0021734  -0.0002130  -0.0002130
    2   0.0000799   0.0000533  -0.0001327  -0.0001119   0.0000557   0.0000557
    3   0.0000000   0.0000000  -0.0000000  -0.0000000  -0.0001433   0.0001433
 Max gradient component =       3.030E-03
 RMS gradient           =       8.904E-04
 Gradient time:  CPU 12.71 s  wall 0.80 s
 Geometry Optimization Parameters
   NAtoms,    NIC,     NZ,  NCons,   NDum,   NFix, NCnnct, MaxDiis
        6      25       0       0       0       0       0       0

 Cartesian Hessian Update
 Hessian updated using BFGS update


** GEOMETRY OPTIMIZATION IN DELOCALIZED INTERNAL COORDINATES **
   Searching for a Minimum

   Optimization Cycle:   2

                       Coordinates (Angstroms)
     ATOM                X               Y               Z
      1  O        -1.5311520071    0.1188677496    0.0000000000
      2  H        -1.9398843356   -0.7515787691    0.0000000000
      3  H        -0.5787226424   -0.0446071368    0.0000000000
      4  O         1.3994372856   -0.1028847287    0.0000000000
      5  H         1.7815326053    0.3362426983   -0.7674745140
      6  H         1.7815326053    0.3362426983    0.7674745140
   Point Group: cs    Number of degrees of freedom:     8


   Energy is   -152.704738817

 Hessian updated using BFGS update

  8 Hessian modes will be used to form the next step
  Hessian Eigenvalues:
     0.015842    0.073910    0.159025    0.160271    0.199773    0.547459
     0.551258    0.585162

 Minimum search - taking simple RFO step
 Searching for Lamda that Minimizes Along All modes
 Value Taken    Lamda =  -0.00042768
 Step Taken.  Stepsize is  0.161880

                             Maximum     Tolerance    Cnvgd?
         Gradient           0.001624      0.000050      NO
         Displacement       0.098053      0.000050      NO
         Energy change     -0.000267      0.000000      NO


 New Cartesian Coordinates Obtained by Inverse Iteration

 Displacement from previous Coordinates is:  0.201419
 ----------------------------------------------------------------
             Standard Nuclear Orientation (Angstroms)
    I     Atom           X                Y                Z
 ----------------------------------------------------------------
    1      O      -1.5757561286     0.1127119511     0.0000000000
    2      H      -1.9788107588    -0.7605300206     0.0000000000
    3      H      -0.6243097571    -0.0450173871     0.0000000000
    4      O       1.4394499776    -0.0954361019     0.0000000000
    5      H       1.8260850890     0.3402770351    -0.7669311725
    6      H       1.8260850890     0.3402770351     0.7669311725
 ----------------------------------------------------------------
 Molecular Point Group                 Cs    NOp =  2
 Largest Abelian Subgroup              Cs    NOp =  2
 Nuclear Repulsion Energy =          35.83777430 hartrees
 There are       10 alpha and       10 beta electrons
 Applying Cartesian multipole field
    Component          Value
    ---------          -----
     (2,0,0)        1.00000E-11
     (0,2,0)        2.00000E-11
     (0,0,2)       -3.00000E-11
 Nucleus-field energy     =     0.0000000016 hartrees
 Requested basis set is def2-SVPD
 There are 34 shells and 78 basis functions
 A cutoff of  1.0D-14 yielded    594 shell pairs
 There are      3162 function pairs (      3504 Cartesian)
 Smallest overlap matrix eigenvalue = 1.61E-03
 Attempting to make child job directory: /data/scratch/water_dimer_vfb_forward20240611233610//Frg1/
 Failed to make child job directory:     /data/scratch/water_dimer_vfb_forward20240611233610//Frg1/
 Attempting to make child job directory: /data/scratch/water_dimer_vfb_forward20240611233610//Frg2/
 Failed to make child job directory:     /data/scratch/water_dimer_vfb_forward20240611233610//Frg2/
 Creating input file /data/scratch/water_dimer_vfb_forward20240611233610/Frg1.input
 using default PutDataFrgm: nothing
 calling putenv with: QCSCRATCH=/data/scratch/water_dimer_vfb_forward20240611233610/ 
 Spawning Job For Fragment 0
 Done Job For Fragment 0
 calling putenv with: QCSCRATCH=/data/scratch 
 calling putenv with: QCTHREADS=16 
 Creating input file /data/scratch/water_dimer_vfb_forward20240611233610/Frg2.input
 using default PutDataFrgm: nothing
 calling putenv with: QCSCRATCH=/data/scratch/water_dimer_vfb_forward20240611233610/ 
 Spawning Job For Fragment 1
 Done Job For Fragment 1
 calling putenv with: QCSCRATCH=/data/scratch 
 calling putenv with: QCTHREADS=16 
 Time for running child jobs:  CPU 2.52 s  wall 4.60 s

 -----------------------------------------------------------------------
  General SCF calculation program by
  Eric Jon Sundstrom, Paul Horn, Yuezhi Mao, Dmitri Zuev, Alec White,
  David Stuck, Shaama M.S., Shane Yost, Joonho Lee, David Small,
  Daniel Levine, Susi Lehtola, Hugh Burton, Evgeny Epifanovsky,
  Bang C. Huynh
 -----------------------------------------------------------------------
Performing Restricted Closed Shell SCFMI
Doing General SCFMI
 Exchange:     0.1670 Hartree-Fock + 1.0000 wB97X-V + LR-HF
 Correlation:  1.0000 wB97X-V
 Using Euler-Maclaurin-Lebedev (75,302) quadrature formula
 Nonlocal Correlation:  VV10 with C = 0.0100 and b = 6.00 and scale = 1.00000
 Grid used for NLC:  SG-1 standard quadrature
performing fock build before subrot guess so that all methods have access
Printing subrot_rss_gen Method Specification:
Occupied Subspace Method is 0
Virtual Subspace Method is 0
Energy prior to optimization (guess energy) = -152.703430660160
Begin Timing: Total SCF Calculation
begin iterations for algorithm: DIIS         
the SCF tolerance is set to 1.00e-09
    1    -152.7034306602      6.44e-04     00000 
    2    -152.7046412714      1.87e-04     00000 
    3    -152.7047310468      7.48e-05     00000 
    4    -152.7047416465      4.34e-05     00000 
    5    -152.7047442805      1.61e-05     00000 
    6    -152.7047447843      2.76e-06     00000 
    7    -152.7047447980      1.23e-06     00000 
    8    -152.7047447997      4.48e-07     00000 
    9    -152.7047448001      8.23e-08     00000 
   10    -152.7047448002      2.33e-08     00000 
   11    -152.7047448002      4.62e-09     00000 
   12    -152.7047448002      1.13e-09     00000 
   13    -152.7047448002      2.99e-10     00000 Convergence criterion met
write pseudocanon occs and virts to disk
write pseudocanon orbital energies to disk
Timing for Total SCF: 3.00s (wall), 57.72s (cpu)
SCFMI Energy    -152.7047448002
<S^2>            0.00000
====================================================================
           Variational forward-backward (VFB) CT analysis           
 M. Loipersberger, Y. Mao and M. Head-Gordon, JCTC, 16, 1073 (2020) 
====================================================================
Calculating stabilization due to the forward (1->2) CT
Requested donor fragment: 1
updated OccSS dimension
        5
        5
updated VirtSS dimension
        68
        34
Energy prior to optimization (guess energy) = -152.704744800178
Begin Timing: Total SCF Calculation
begin iterations for algorithm: DIIS         
the SCF tolerance is set to 1.00e-09
    1    -152.7047448002      5.50e-04     00000 
    2    -152.7049977891      2.27e-05     00000 
    3    -152.7050011266      5.37e-06     00000 
    4    -152.7050012350      4.37e-06     00000 
    5    -152.7050012836      4.49e-07     00000 
    6    -152.7050012847      9.18e-08     00000 
    7    -152.7050012848      3.20e-08     00000 
    8    -152.7050012848      1.68e-08     00000 
    9    -152.7050012848      2.03e-09     00000 
   10    -152.7050012848      4.74e-10     00000 Convergence criterion met
write pseudocanon occs and virts to disk
write pseudocanon orbital energies to disk
Timing for Total SCF: 3.00s (wall), 43.45s (cpu)
Energy of the one-side CT state:     -152.7050012848
Stabilization due to one-side CT:    -0.6734 kJ/mol
<S^2>            0.00000
 Total energy in the final basis set =     -152.7050012848
    ==================================================
        The end of Object-Oriented SCFman: SCFMI      
    ==================================================
 
 --------------------------------------------------------------
             Orbital Energies (a.u.) and Symmetries
 --------------------------------------------------------------
 
 Alpha MOs, Restricted
 -- Occupied --                  
-19.257 -19.212  -1.154  -1.108  -0.671  -0.629  -0.530  -0.481
  1 A'    2 A'    3 A'    4 A'    1 A"    5 A'    6 A'    7 A'                 
 -0.452  -0.409
  8 A'    2 A"                                                                 
 -- Virtual --                   
  0.062   0.107   0.122   0.150   0.173   0.191   0.209   0.228
  9 A'   10 A'    3 A"   11 A'   12 A'    4 A"   13 A'   14 A'                 
  0.241   0.268   0.287   0.289   0.312   0.327   0.356   0.389
  5 A"   15 A'    6 A"   16 A'   17 A'   18 A'    7 A"   19 A'                 
  0.420   0.433   0.443   0.445   0.486   0.487   0.498   0.607
  8 A"   20 A'    9 A"   21 A'   10 A"   22 A'   23 A'   24 A'                 
  0.608   0.637   0.679   0.682   0.683   0.725   0.746   0.754
 11 A"   25 A'   26 A'   12 A"   27 A'   13 A"   28 A'   14 A"                 
  0.773   0.841   1.038   1.067   1.109   1.173   1.309   1.423
 29 A'   30 A'   31 A'   32 A'   15 A"   33 A'   34 A'   16 A"                 
  1.426   1.607   1.619   1.663   1.739   1.798   1.837   1.863
 35 A'   36 A'   17 A"   37 A'   38 A'   18 A"   19 A"   39 A'                 
  1.977   2.027   2.039   2.058   2.122   2.154   2.340   2.433
 40 A'   20 A"   21 A"   41 A'   42 A'   43 A'   22 A"   44 A'                 
  2.478   2.558   3.124   3.130   3.143   3.202   3.297   3.336
 45 A'   46 A'   23 A"   47 A'   24 A"   25 A"   48 A'   49 A'                 
  3.729   3.797   4.116   4.194
 50 A'   51 A'   26 A"   52 A'                                                 
 
 Beta MOs, Restricted
 -- Occupied --                  
-19.257 -19.212  -1.154  -1.108  -0.671  -0.629  -0.530  -0.481
  1 A'    2 A'    3 A'    4 A'    1 A"    5 A'    6 A'    7 A'                 
 -0.452  -0.409
  8 A'    2 A"                                                                 
 -- Virtual --                   
  0.062   0.107   0.122   0.150   0.173   0.191   0.209   0.228
  9 A'   10 A'    3 A"   11 A'   12 A'    4 A"   13 A'   14 A'                 
  0.241   0.268   0.287   0.289   0.312   0.327   0.356   0.389
  5 A"   15 A'    6 A"   16 A'   17 A'   18 A'    7 A"   19 A'                 
  0.420   0.433   0.443   0.445   0.486   0.487   0.498   0.607
  8 A"   20 A'    9 A"   21 A'   10 A"   22 A'   23 A'   24 A'                 
  0.608   0.637   0.679   0.682   0.683   0.725   0.746   0.754
 11 A"   25 A'   26 A'   12 A"   27 A'   13 A"   28 A'   14 A"                 
  0.773   0.841   1.038   1.067   1.109   1.173   1.309   1.423
 29 A'   30 A'   31 A'   32 A'   15 A"   33 A'   34 A'   16 A"                 
  1.426   1.607   1.619   1.663   1.739   1.798   1.837   1.863
 35 A'   36 A'   17 A"   37 A'   38 A'   18 A"   19 A"   39 A'                 
  1.977   2.027   2.039   2.058   2.122   2.154   2.340   2.433
 40 A'   20 A"   21 A"   41 A'   42 A'   43 A'   22 A"   44 A'                 
  2.478   2.558   3.124   3.130   3.143   3.202   3.297   3.336
 45 A'   46 A'   23 A"   47 A'   24 A"   25 A"   48 A'   49 A'                 
  3.729   3.797   4.116   4.194
 50 A'   51 A'   26 A"   52 A'                                                 
 --------------------------------------------------------------
 
          Ground-State Mulliken Net Atomic Charges

     Atom                 Charge (a.u.)
  ----------------------------------------
      1 O                    -0.254138
      2 H                     0.147919
      3 H                     0.119292
      4 O                    -0.286560
      5 H                     0.136743
      6 H                     0.136743
  ----------------------------------------
  Sum of atomic charges =     0.000000

 -----------------------------------------------------------------
                    Cartesian Multipole Moments
 -----------------------------------------------------------------
    Charge (ESU x 10^10)
                 0.0000
    Dipole Moment (Debye)
         X       2.6046      Y      -0.2470      Z       0.0000
       Tot       2.6163
    Quadrupole Moments (Debye-Ang)
        XX     -11.0775     XY       6.3057     YY     -13.2102
        XZ       0.0000     YZ       0.0000     ZZ     -12.2748
    Octopole Moments (Debye-Ang^2)
       XXX       9.8059    XXY      -1.5740    XYY      -1.2888
       YYY      -0.8231    XXZ       0.0000    XYZ       0.0000
       YYZ       0.0000    XZZ       6.4927    YZZ       0.7484
       ZZZ       0.0000
    Hexadecapole Moments (Debye-Ang^3)
      XXXX    -183.5268   XXXY      26.0589   XXYY     -33.5488
      XYYY       4.3894   YYYY     -15.7874   XXXZ       0.0000
      XXYZ       0.0000   XYYZ       0.0000   YYYZ       0.0000
      XXZZ     -31.2798   XYZZ       2.3305   YYZZ      -5.2179
      XZZZ       0.0000   YZZZ       0.0000   ZZZZ     -14.7879
 -----------------------------------------------------------------
 Calculating analytic gradient of the SCF energy
 Gradient of SCF Energy
            1           2           3           4           5           6
    1   0.0008626  -0.0000641  -0.0000773  -0.0004495  -0.0001359  -0.0001359
    2  -0.0001321   0.0000118   0.0001297  -0.0000413   0.0000160   0.0000160
    3  -0.0000000  -0.0000000   0.0000000   0.0000000  -0.0000006   0.0000006
 Max gradient component =       8.626E-04
 RMS gradient           =       2.392E-04
 Gradient time:  CPU 12.70 s  wall 0.80 s
 Geometry Optimization Parameters
   NAtoms,    NIC,     NZ,  NCons,   NDum,   NFix, NCnnct, MaxDiis
        6      25       0       0       0       0       0       0

 Cartesian Hessian Update
 Hessian updated using BFGS update


** GEOMETRY OPTIMIZATION IN DELOCALIZED INTERNAL COORDINATES **
   Searching for a Minimum

   Optimization Cycle:   3

                       Coordinates (Angstroms)
     ATOM                X               Y               Z
      1  O        -1.5757561286    0.1127119511    0.0000000000
      2  H        -1.9788107588   -0.7605300206    0.0000000000
      3  H        -0.6243097571   -0.0450173871    0.0000000000
      4  O         1.4394499776   -0.0954361019    0.0000000000
      5  H         1.8260850890    0.3402770351   -0.7669311725
      6  H         1.8260850890    0.3402770351    0.7669311725
   Point Group: cs    Number of degrees of freedom:     8


   Energy is   -152.705001285

 Hessian updated using BFGS update

  8 Hessian modes will be used to form the next step
  Hessian Eigenvalues:
     0.011737    0.073905    0.158723    0.160322    0.199768    0.547480
     0.551280    0.589622

 Minimum search - taking simple RFO step
 Searching for Lamda that Minimizes Along All modes
 Value Taken    Lamda =  -0.00004748
 Step Taken.  Stepsize is  0.062386

                             Maximum     Tolerance    Cnvgd?
         Gradient           0.000746      0.000050      NO
         Displacement       0.036546      0.000050      NO
         Energy change     -0.000262      0.000000      NO


 New Cartesian Coordinates Obtained by Inverse Iteration

 Displacement from previous Coordinates is:  0.079850
 ----------------------------------------------------------------
             Standard Nuclear Orientation (Angstroms)
    I     Atom           X                Y                Z
 ----------------------------------------------------------------
    1      O      -1.5941552521     0.1104267585     0.0000000000
    2      H      -1.9938956447    -0.7643501588     0.0000000000
    3      H      -0.6419088276    -0.0449950395     0.0000000000
    4      O       1.4547390299    -0.0919626689     0.0000000000
    5      H       1.8439821028     0.3415818103    -0.7668587133
    6      H       1.8439821028     0.3415818103     0.7668587133
 ----------------------------------------------------------------
 Molecular Point Group                 Cs    NOp =  2
 Largest Abelian Subgroup              Cs    NOp =  2
 Nuclear Repulsion Energy =          35.63940695 hartrees
 There are       10 alpha and       10 beta electrons
 Applying Cartesian multipole field
    Component          Value
    ---------          -----
     (2,0,0)        1.00000E-11
     (0,2,0)        2.00000E-11
     (0,0,2)       -3.00000E-11
 Nucleus-field energy     =     0.0000000017 hartrees
 Requested basis set is def2-SVPD
 There are 34 shells and 78 basis functions
 A cutoff of  1.0D-14 yielded    592 shell pairs
 There are      3152 function pairs (      3492 Cartesian)
 Smallest overlap matrix eigenvalue = 1.63E-03
 Attempting to make child job directory: /data/scratch/water_dimer_vfb_forward20240611233610//Frg1/
 Failed to make child job directory:     /data/scratch/water_dimer_vfb_forward20240611233610//Frg1/
 Attempting to make child job directory: /data/scratch/water_dimer_vfb_forward20240611233610//Frg2/
 Failed to make child job directory:     /data/scratch/water_dimer_vfb_forward20240611233610//Frg2/
 Creating input file /data/scratch/water_dimer_vfb_forward20240611233610/Frg1.input
 using default PutDataFrgm: nothing
 calling putenv with: QCSCRATCH=/data/scratch/water_dimer_vfb_forward20240611233610/ 
 Spawning Job For Fragment 0
 Done Job For Fragment 0
 calling putenv with: QCSCRATCH=/data/scratch 
 calling putenv with: QCTHREADS=16 
 Creating input file /data/scratch/water_dimer_vfb_forward20240611233610/Frg2.input
 using default PutDataFrgm: nothing
 calling putenv with: QCSCRATCH=/data/scratch/water_dimer_vfb_forward20240611233610/ 
 Spawning Job For Fragment 1
 Done Job For Fragment 1
 calling putenv with: QCSCRATCH=/data/scratch 
 calling putenv with: QCTHREADS=16 
 Time for running child jobs:  CPU 2.40 s  wall 4.57 s

 -----------------------------------------------------------------------
  General SCF calculation program by
  Eric Jon Sundstrom, Paul Horn, Yuezhi Mao, Dmitri Zuev, Alec White,
  David Stuck, Shaama M.S., Shane Yost, Joonho Lee, David Small,
  Daniel Levine, Susi Lehtola, Hugh Burton, Evgeny Epifanovsky,
  Bang C. Huynh
 -----------------------------------------------------------------------
Performing Restricted Closed Shell SCFMI
Doing General SCFMI
 Exchange:     0.1670 Hartree-Fock + 1.0000 wB97X-V + LR-HF
 Correlation:  1.0000 wB97X-V
 Using Euler-Maclaurin-Lebedev (75,302) quadrature formula
 Nonlocal Correlation:  VV10 with C = 0.0100 and b = 6.00 and scale = 1.00000
 Grid used for NLC:  SG-1 standard quadrature
performing fock build before subrot guess so that all methods have access
Printing subrot_rss_gen Method Specification:
Occupied Subspace Method is 0
Virtual Subspace Method is 0
Energy prior to optimization (guess energy) = -152.703581857692
Begin Timing: Total SCF Calculation
begin iterations for algorithm: DIIS         
the SCF tolerance is set to 1.00e-09
    1    -152.7035818577      6.17e-04     00000 
    2    -152.7046902160      1.81e-04     00000 
    3    -152.7047721487      7.31e-05     00000 
    4    -152.7047818792      4.22e-05     00000 
    5    -152.7047843236      1.48e-05     00000 
    6    -152.7047847437      2.49e-06     00000 
    7    -152.7047847542      1.27e-06     00000 
    8    -152.7047847561      3.76e-07     00000 
    9    -152.7047847564      7.13e-08     00000 
   10    -152.7047847564      1.91e-08     00000 
   11    -152.7047847564      3.53e-09     00000 
   12    -152.7047847564      8.59e-10     00000 Convergence criterion met
write pseudocanon occs and virts to disk
write pseudocanon orbital energies to disk
Timing for Total SCF: 3.00s (wall), 53.10s (cpu)
SCFMI Energy    -152.7047847564
<S^2>            0.00000
====================================================================
           Variational forward-backward (VFB) CT analysis           
 M. Loipersberger, Y. Mao and M. Head-Gordon, JCTC, 16, 1073 (2020) 
====================================================================
Calculating stabilization due to the forward (1->2) CT
Requested donor fragment: 1
updated OccSS dimension
        5
        5
updated VirtSS dimension
        68
        34
Energy prior to optimization (guess energy) = -152.704784756437
Begin Timing: Total SCF Calculation
begin iterations for algorithm: DIIS         
the SCF tolerance is set to 1.00e-09
    1    -152.7047847564      5.46e-04     00000 
    2    -152.7050277199      2.17e-05     00000 
    3    -152.7050307955      4.94e-06     00000 
    4    -152.7050308927      4.02e-06     00000 
    5    -152.7050309339      4.22e-07     00000 
    6    -152.7050309349      8.62e-08     00000 
    7    -152.7050309349      2.69e-08     00000 
    8    -152.7050309349      1.61e-08     00000 
    9    -152.7050309349      1.89e-09     00000 
   10    -152.7050309349      4.36e-10     00000 Convergence criterion met
write pseudocanon occs and virts to disk
write pseudocanon orbital energies to disk
Timing for Total SCF: 3.00s (wall), 43.40s (cpu)
Energy of the one-side CT state:     -152.7050309349
Stabilization due to one-side CT:    -0.6463 kJ/mol
<S^2>            0.00000
 Total energy in the final basis set =     -152.7050309349
    ==================================================
        The end of Object-Oriented SCFman: SCFMI      
    ==================================================
 
 --------------------------------------------------------------
             Orbital Energies (a.u.) and Symmetries
 --------------------------------------------------------------
 
 Alpha MOs, Restricted
 -- Occupied --                  
-19.257 -19.213  -1.153  -1.108  -0.670  -0.629  -0.530  -0.482
  1 A'    2 A'    3 A'    4 A'    1 A"    5 A'    6 A'    7 A'                 
 -0.452  -0.410
  8 A'    2 A"                                                                 
 -- Virtual --                   
  0.062   0.106   0.122   0.150   0.173   0.190   0.208   0.228
  9 A'   10 A'    3 A"   11 A'   12 A'    4 A"   13 A'   14 A'                 
  0.242   0.268   0.286   0.289   0.310   0.325   0.356   0.388
  5 A"   15 A'    6 A"   16 A'   17 A'   18 A'    7 A"   19 A'                 
  0.419   0.432   0.441   0.445   0.486   0.487   0.497   0.607
  8 A"   20 A'    9 A"   21 A'   10 A"   22 A'   23 A'   11 A"                 
  0.608   0.636   0.679   0.682   0.683   0.725   0.745   0.754
 24 A'   25 A'   26 A'   12 A"   27 A'   13 A"   28 A'   14 A"                 
  0.772   0.835   1.037   1.066   1.109   1.172   1.307   1.420
 29 A'   30 A'   31 A'   32 A'   15 A"   33 A'   34 A'   16 A"                 
  1.423   1.605   1.619   1.662   1.739   1.798   1.836   1.864
 35 A'   36 A'   17 A"   37 A'   38 A'   18 A"   19 A"   39 A'                 
  1.976   2.023   2.037   2.058   2.122   2.151   2.340   2.427
 40 A'   20 A"   21 A"   41 A'   42 A'   43 A'   22 A"   44 A'                 
  2.478   2.549   3.124   3.131   3.143   3.201   3.297   3.334
 45 A'   46 A'   23 A"   47 A'   24 A"   25 A"   48 A'   49 A'                 
  3.729   3.795   4.116   4.193
 50 A'   51 A'   26 A"   52 A'                                                 
 
 Beta MOs, Restricted
 -- Occupied --                  
-19.257 -19.213  -1.153  -1.108  -0.670  -0.629  -0.530  -0.482
  1 A'    2 A'    3 A'    4 A'    1 A"    5 A'    6 A'    7 A'                 
 -0.452  -0.410
  8 A'    2 A"                                                                 
 -- Virtual --                   
  0.062   0.106   0.122   0.150   0.173   0.190   0.208   0.228
  9 A'   10 A'    3 A"   11 A'   12 A'    4 A"   13 A'   14 A'                 
  0.242   0.268   0.286   0.289   0.310   0.325   0.356   0.388
  5 A"   15 A'    6 A"   16 A'   17 A'   18 A'    7 A"   19 A'                 
  0.419   0.432   0.441   0.445   0.486   0.487   0.497   0.607
  8 A"   20 A'    9 A"   21 A'   10 A"   22 A'   23 A'   11 A"                 
  0.608   0.636   0.679   0.682   0.683   0.725   0.745   0.754
 24 A'   25 A'   26 A'   12 A"   27 A'   13 A"   28 A'   14 A"                 
  0.772   0.835   1.037   1.066   1.109   1.172   1.307   1.420
 29 A'   30 A'   31 A'   32 A'   15 A"   33 A'   34 A'   16 A"                 
  1.423   1.605   1.619   1.662   1.739   1.798   1.836   1.864
 35 A'   36 A'   17 A"   37 A'   38 A'   18 A"   19 A"   39 A'                 
  1.976   2.023   2.037   2.058   2.122   2.151   2.340   2.427
 40 A'   20 A"   21 A"   41 A'   42 A'   43 A'   22 A"   44 A'                 
  2.478   2.549   3.124   3.131   3.143   3.201   3.297   3.334
 45 A'   46 A'   23 A"   47 A'   24 A"   25 A"   48 A'   49 A'                 
  3.729   3.795   4.116   4.193
 50 A'   51 A'   26 A"   52 A'                                                 
 --------------------------------------------------------------
 
          Ground-State Mulliken Net Atomic Charges

     Atom                 Charge (a.u.)
  ----------------------------------------
      1 O                    -0.253946
      2 H                     0.148399
      3 H                     0.118719
      4 O                    -0.287430
      5 H                     0.137129
      6 H                     0.137129
  ----------------------------------------
  Sum of atomic charges =     0.000000

 -----------------------------------------------------------------
                    Cartesian Multipole Moments
 -----------------------------------------------------------------
    Charge (ESU x 10^10)
                 0.0000
    Dipole Moment (Debye)
         X       2.6044      Y      -0.2515      Z       0.0000
       Tot       2.6165
    Quadrupole Moments (Debye-Ang)
        XX     -11.0555     XY       6.3478     YY     -13.1961
        XZ       0.0000     YZ       0.0000     ZZ     -12.2765
    Octopole Moments (Debye-Ang^2)
       XXX      10.1843    XXY      -1.5998    XYY      -1.3199
       YYY      -0.8541    XXZ       0.0000    XYZ      -0.0000
       YYZ      -0.0000    XZZ       6.5569    YZZ       0.7479
       ZZZ      -0.0000
    Hexadecapole Moments (Debye-Ang^3)
      XXXX    -187.1774   XXXY      26.5398   XXYY     -34.1425
      XYYY       4.2767   YYYY     -15.7613   XXXZ       0.0000
      XXYZ       0.0000   XYYZ      -0.0000   YYYZ      -0.0000
      XXZZ     -31.8829   XYZZ       2.2977   YYZZ      -5.2145
      XZZZ      -0.0000   YZZZ      -0.0000   ZZZZ     -14.7881
 -----------------------------------------------------------------
 Calculating analytic gradient of the SCF energy
 Gradient of SCF Energy
            1           2           3           4           5           6
    1   0.0002036  -0.0000031  -0.0000209  -0.0000050  -0.0000873  -0.0000873
    2  -0.0000170   0.0000440  -0.0000227  -0.0000595   0.0000276   0.0000276
    3  -0.0000000   0.0000000  -0.0000000  -0.0000000  -0.0000270   0.0000270
 Max gradient component =       2.036E-04
 RMS gradient           =       6.076E-05
 Gradient time:  CPU 12.64 s  wall 0.79 s
 Geometry Optimization Parameters
   NAtoms,    NIC,     NZ,  NCons,   NDum,   NFix, NCnnct, MaxDiis
        6      25       0       0       0       0       0       0

 Cartesian Hessian Update
 Hessian updated using BFGS update


** GEOMETRY OPTIMIZATION IN DELOCALIZED INTERNAL COORDINATES **
   Searching for a Minimum

   Optimization Cycle:   4

                       Coordinates (Angstroms)
     ATOM                X               Y               Z
      1  O        -1.5941552521    0.1104267585    0.0000000000
      2  H        -1.9938956447   -0.7643501588    0.0000000000
      3  H        -0.6419088276   -0.0449950395    0.0000000000
      4  O         1.4547390299   -0.0919626689    0.0000000000
      5  H         1.8439821028    0.3415818103   -0.7668587133
      6  H         1.8439821028    0.3415818103    0.7668587133
   Point Group: cs    Number of degrees of freedom:     8


   Energy is   -152.705030935

 Hessian updated using BFGS update

  8 Hessian modes will be used to form the next step
  Hessian Eigenvalues:
     0.008720    0.073709    0.157597    0.160374    0.199709    0.547499
     0.551381    0.586633

 Minimum search - taking simple RFO step
 Searching for Lamda that Minimizes Along All modes
 Value Taken    Lamda =  -0.00000513
 Step Taken.  Stepsize is  0.023252

                             Maximum     Tolerance    Cnvgd?
         Gradient           0.000271      0.000050      NO
         Displacement       0.013399      0.000050      NO
         Energy change     -0.000030      0.000000      NO


 New Cartesian Coordinates Obtained by Inverse Iteration

 Displacement from previous Coordinates is:  0.030671
 ----------------------------------------------------------------
             Standard Nuclear Orientation (Angstroms)
    I     Atom           X                Y                Z
 ----------------------------------------------------------------
    1      O      -1.6012756348     0.1095299228     0.0000000000
    2      H      -1.9994507003    -0.7660279007     0.0000000000
    3      H      -0.6487111976    -0.0447099516     0.0000000000
    4      O       1.4600568519    -0.0901638461     0.0000000000
    5      H       1.8510620960     0.3418271437    -0.7668268023
    6      H       1.8510620960     0.3418271437     0.7668268023
 ----------------------------------------------------------------
 Molecular Point Group                 Cs    NOp =  2
 Largest Abelian Subgroup              Cs    NOp =  2
 Nuclear Repulsion Energy =          35.56686738 hartrees
 There are       10 alpha and       10 beta electrons
 Applying Cartesian multipole field
    Component          Value
    ---------          -----
     (2,0,0)        1.00000E-11
     (0,2,0)        2.00000E-11
     (0,0,2)       -3.00000E-11
 Nucleus-field energy     =     0.0000000017 hartrees
 Requested basis set is def2-SVPD
 There are 34 shells and 78 basis functions
 A cutoff of  1.0D-14 yielded    592 shell pairs
 There are      3152 function pairs (      3492 Cartesian)
 Smallest overlap matrix eigenvalue = 1.64E-03
 Attempting to make child job directory: /data/scratch/water_dimer_vfb_forward20240611233610//Frg1/
 Failed to make child job directory:     /data/scratch/water_dimer_vfb_forward20240611233610//Frg1/
 Attempting to make child job directory: /data/scratch/water_dimer_vfb_forward20240611233610//Frg2/
 Failed to make child job directory:     /data/scratch/water_dimer_vfb_forward20240611233610//Frg2/
 Creating input file /data/scratch/water_dimer_vfb_forward20240611233610/Frg1.input
 using default PutDataFrgm: nothing
 calling putenv with: QCSCRATCH=/data/scratch/water_dimer_vfb_forward20240611233610/ 
 Spawning Job For Fragment 0
 Done Job For Fragment 0
 calling putenv with: QCSCRATCH=/data/scratch 
 calling putenv with: QCTHREADS=16 
 Creating input file /data/scratch/water_dimer_vfb_forward20240611233610/Frg2.input
 using default PutDataFrgm: nothing
 calling putenv with: QCSCRATCH=/data/scratch/water_dimer_vfb_forward20240611233610/ 
 Spawning Job For Fragment 1
 Done Job For Fragment 1
 calling putenv with: QCSCRATCH=/data/scratch 
 calling putenv with: QCTHREADS=16 
 Time for running child jobs:  CPU 2.55 s  wall 4.58 s

 -----------------------------------------------------------------------
  General SCF calculation program by
  Eric Jon Sundstrom, Paul Horn, Yuezhi Mao, Dmitri Zuev, Alec White,
  David Stuck, Shaama M.S., Shane Yost, Joonho Lee, David Small,
  Daniel Levine, Susi Lehtola, Hugh Burton, Evgeny Epifanovsky,
  Bang C. Huynh
 -----------------------------------------------------------------------
Performing Restricted Closed Shell SCFMI
Doing General SCFMI
 Exchange:     0.1670 Hartree-Fock + 1.0000 wB97X-V + LR-HF
 Correlation:  1.0000 wB97X-V
 Using Euler-Maclaurin-Lebedev (75,302) quadrature formula
 Nonlocal Correlation:  VV10 with C = 0.0100 and b = 6.00 and scale = 1.00000
 Grid used for NLC:  SG-1 standard quadrature
performing fock build before subrot guess so that all methods have access
Printing subrot_rss_gen Method Specification:
Occupied Subspace Method is 0
Virtual Subspace Method is 0
Energy prior to optimization (guess energy) = -152.703626441030
Begin Timing: Total SCF Calculation
begin iterations for algorithm: DIIS         
the SCF tolerance is set to 1.00e-09
    1    -152.7036264410      6.07e-04     00000 
    2    -152.7046996589      1.79e-04     00000 
    3    -152.7047788597      7.28e-05     00000 
    4    -152.7047883253      4.19e-05     00000 
    5    -152.7047907225      1.44e-05     00000 
    6    -152.7047911153      2.40e-06     00000 
    7    -152.7047911250      1.27e-06     00000 
    8    -152.7047911268      3.54e-07     00000 
    9    -152.7047911271      6.77e-08     00000 
   10    -152.7047911271      1.77e-08     00000 
   11    -152.7047911271      3.18e-09     00000 
   12    -152.7047911271      7.65e-10     00000 Convergence criterion met
write pseudocanon occs and virts to disk
write pseudocanon orbital energies to disk
Timing for Total SCF: 3.00s (wall), 53.20s (cpu)
SCFMI Energy    -152.7047911271
<S^2>            0.00000
====================================================================
           Variational forward-backward (VFB) CT analysis           
 M. Loipersberger, Y. Mao and M. Head-Gordon, JCTC, 16, 1073 (2020) 
====================================================================
Calculating stabilization due to the forward (1->2) CT
Requested donor fragment: 1
updated OccSS dimension
        5
        5
updated VirtSS dimension
        68
        34
Energy prior to optimization (guess energy) = -152.704791127146
Begin Timing: Total SCF Calculation
begin iterations for algorithm: DIIS         
the SCF tolerance is set to 1.00e-09
    1    -152.7047911271      5.44e-04     00000 
    2    -152.7050308052      2.14e-05     00000 
    3    -152.7050337952      4.80e-06     00000 
    4    -152.7050338889      3.91e-06     00000 
    5    -152.7050339277      4.12e-07     00000 
    6    -152.7050339286      8.43e-08     00000 
    7    -152.7050339287      2.53e-08     00000 
    8    -152.7050339287      1.58e-08     00000 
    9    -152.7050339287      1.83e-09     00000 
   10    -152.7050339287      4.22e-10     00000 Convergence criterion met
write pseudocanon occs and virts to disk
write pseudocanon orbital energies to disk
Timing for Total SCF: 3.00s (wall), 43.36s (cpu)
Energy of the one-side CT state:     -152.7050339287
Stabilization due to one-side CT:    -0.6375 kJ/mol
<S^2>            0.00000
 Total energy in the final basis set =     -152.7050339287
    ==================================================
        The end of Object-Oriented SCFman: SCFMI      
    ==================================================
 
 --------------------------------------------------------------
             Orbital Energies (a.u.) and Symmetries
 --------------------------------------------------------------
 
 Alpha MOs, Restricted
 -- Occupied --                  
-19.257 -19.213  -1.153  -1.109  -0.670  -0.629  -0.529  -0.482
  1 A'    2 A'    3 A'    4 A'    1 A"    5 A'    6 A'    7 A'                 
 -0.452  -0.410
  8 A'    2 A"                                                                 
 -- Virtual --                   
  0.062   0.106   0.122   0.151   0.173   0.190   0.208   0.228
  9 A'   10 A'    3 A"   11 A'   12 A'    4 A"   13 A'   14 A'                 
  0.242   0.268   0.286   0.289   0.310   0.324   0.355   0.387
  5 A"   15 A'    6 A"   16 A'   17 A'   18 A'    7 A"   19 A'                 
  0.419   0.432   0.441   0.444   0.486   0.486   0.497   0.607
  8 A"   20 A'    9 A"   21 A'   10 A"   22 A'   23 A'   11 A"                 
  0.608   0.636   0.679   0.682   0.683   0.724   0.745   0.754
 24 A'   25 A'   26 A'   12 A"   27 A'   13 A"   28 A'   14 A"                 
  0.771   0.832   1.036   1.066   1.110   1.172   1.307   1.418
 29 A'   30 A'   31 A'   32 A'   15 A"   33 A'   34 A'   16 A"                 
  1.422   1.604   1.619   1.662   1.738   1.798   1.835   1.864
 35 A'   36 A'   17 A"   37 A'   38 A'   18 A"   19 A"   39 A'                 
  1.976   2.020   2.038   2.058   2.122   2.150   2.341   2.425
 40 A'   20 A"   21 A"   41 A'   42 A'   43 A'   22 A"   44 A'                 
  2.477   2.546   3.123   3.131   3.143   3.201   3.297   3.334
 45 A'   46 A'   23 A"   47 A'   24 A"   25 A"   48 A'   49 A'                 
  3.729   3.794   4.117   4.192
 50 A'   51 A'   26 A"   52 A'                                                 
 
 Beta MOs, Restricted
 -- Occupied --                  
-19.257 -19.213  -1.153  -1.109  -0.670  -0.629  -0.529  -0.482
  1 A'    2 A'    3 A'    4 A'    1 A"    5 A'    6 A'    7 A'                 
 -0.452  -0.410
  8 A'    2 A"                                                                 
 -- Virtual --                   
  0.062   0.106   0.122   0.151   0.173   0.190   0.208   0.228
  9 A'   10 A'    3 A"   11 A'   12 A'    4 A"   13 A'   14 A'                 
  0.242   0.268   0.286   0.289   0.310   0.324   0.355   0.387
  5 A"   15 A'    6 A"   16 A'   17 A'   18 A'    7 A"   19 A'                 
  0.419   0.432   0.441   0.444   0.486   0.486   0.497   0.607
  8 A"   20 A'    9 A"   21 A'   10 A"   22 A'   23 A'   11 A"                 
  0.608   0.636   0.679   0.682   0.683   0.724   0.745   0.754
 24 A'   25 A'   26 A'   12 A"   27 A'   13 A"   28 A'   14 A"                 
  0.771   0.832   1.036   1.066   1.110   1.172   1.307   1.418
 29 A'   30 A'   31 A'   32 A'   15 A"   33 A'   34 A'   16 A"                 
  1.422   1.604   1.619   1.662   1.738   1.798   1.835   1.864
 35 A'   36 A'   17 A"   37 A'   38 A'   18 A"   19 A"   39 A'                 
  1.976   2.020   2.038   2.058   2.122   2.150   2.341   2.425
 40 A'   20 A"   21 A"   41 A'   42 A'   43 A'   22 A"   44 A'                 
  2.477   2.546   3.123   3.131   3.143   3.201   3.297   3.334
 45 A'   46 A'   23 A"   47 A'   24 A"   25 A"   48 A'   49 A'                 
  3.729   3.794   4.117   4.192
 50 A'   51 A'   26 A"   52 A'                                                 
 --------------------------------------------------------------
 
          Ground-State Mulliken Net Atomic Charges

     Atom                 Charge (a.u.)
  ----------------------------------------
      1 O                    -0.253854
      2 H                     0.148580
      3 H                     0.118481
      4 O                    -0.287666
      5 H                     0.137229
      6 H                     0.137229
  ----------------------------------------
  Sum of atomic charges =     0.000000

 -----------------------------------------------------------------
                    Cartesian Multipole Moments
 -----------------------------------------------------------------
    Charge (ESU x 10^10)
                -0.0000
    Dipole Moment (Debye)
         X       2.6077      Y      -0.2553      Z       0.0000
       Tot       2.6202
    Quadrupole Moments (Debye-Ang)
        XX     -11.0410     XY       6.3602     YY     -13.1914
        XZ       0.0000     YZ      -0.0000     ZZ     -12.2771
    Octopole Moments (Debye-Ang^2)
       XXX      10.3763    XXY      -1.6177    XYY      -1.3313
       YYY      -0.8747    XXZ      -0.0000    XYZ       0.0000
       YYZ       0.0000    XZZ       6.5859    YZZ       0.7449
       ZZZ       0.0000
    Hexadecapole Moments (Debye-Ang^3)
      XXXX    -188.5022   XXXY      26.7028   XXYY     -34.3643
      XYYY       4.2198   YYYY     -15.7493   XXXZ       0.0000
      XXYZ      -0.0000   XYYZ       0.0000   YYYZ      -0.0000
      XXZZ     -32.1064   XYZZ       2.2798   YYZZ      -5.2135
      XZZZ       0.0000   YZZZ       0.0000   ZZZZ     -14.7880
 -----------------------------------------------------------------
 Calculating analytic gradient of the SCF energy
 Gradient of SCF Energy
            1           2           3           4           5           6
    1   0.0000198   0.0000007  -0.0000173   0.0001435  -0.0000733  -0.0000733
    2   0.0000821   0.0000002  -0.0000824  -0.0000505   0.0000253   0.0000253
    3   0.0000000   0.0000000  -0.0000000   0.0000000  -0.0000258   0.0000258
 Max gradient component =       1.435E-04
 RMS gradient           =       5.308E-05
 Gradient time:  CPU 12.67 s  wall 0.79 s
 Geometry Optimization Parameters
   NAtoms,    NIC,     NZ,  NCons,   NDum,   NFix, NCnnct, MaxDiis
        6      25       0       0       0       0       0       0

 Cartesian Hessian Update
 Hessian updated using BFGS update


** GEOMETRY OPTIMIZATION IN DELOCALIZED INTERNAL COORDINATES **
   Searching for a Minimum

   Optimization Cycle:   5

                       Coordinates (Angstroms)
     ATOM                X               Y               Z
      1  O        -1.6012756348    0.1095299228    0.0000000000
      2  H        -1.9994507003   -0.7660279007    0.0000000000
      3  H        -0.6487111976   -0.0447099516    0.0000000000
      4  O         1.4600568519   -0.0901638461    0.0000000000
      5  H         1.8510620960    0.3418271437   -0.7668268023
      6  H         1.8510620960    0.3418271437    0.7668268023
   Point Group: cs    Number of degrees of freedom:     8


   Energy is   -152.705033929

 Hessian updated using BFGS update

  8 Hessian modes will be used to form the next step
  Hessian Eigenvalues:
     0.007681    0.071933    0.151105    0.160650    0.198954    0.547494
     0.551434    0.587690

 Minimum search - taking simple RFO step
 Searching for Lamda that Minimizes Along All modes
 Value Taken    Lamda =  -0.00000055
 Step Taken.  Stepsize is  0.005393

                             Maximum     Tolerance    Cnvgd?
         Gradient           0.000155      0.000050      NO
         Displacement       0.003521      0.000050      NO
         Energy change     -0.000003      0.000000      NO


 New Cartesian Coordinates Obtained by Inverse Iteration

 Displacement from previous Coordinates is:  0.007832
 ----------------------------------------------------------------
             Standard Nuclear Orientation (Angstroms)
    I     Atom           X                Y                Z
 ----------------------------------------------------------------
    1      O      -1.6030855172     0.1092464141     0.0000000000
    2      H      -2.0006200031    -0.7666116540     0.0000000000
    3      H      -0.6504113232    -0.0443762415     0.0000000000
    4      O       1.4608268909    -0.0892637142     0.0000000000
    5      H       1.8530167318     0.3416438537    -0.7668256348
    6      H       1.8530167318     0.3416438537     0.7668256348
 ----------------------------------------------------------------
 Molecular Point Group                 Cs    NOp =  2
 Largest Abelian Subgroup              Cs    NOp =  2
 Nuclear Repulsion Energy =          35.55159406 hartrees
 There are       10 alpha and       10 beta electrons
 Applying Cartesian multipole field
    Component          Value
    ---------          -----
     (2,0,0)        1.00000E-11
     (0,2,0)        2.00000E-11
     (0,0,2)       -3.00000E-11
 Nucleus-field energy     =     0.0000000017 hartrees
 Requested basis set is def2-SVPD
 There are 34 shells and 78 basis functions
 A cutoff of  1.0D-14 yielded    592 shell pairs
 There are      3152 function pairs (      3492 Cartesian)
 Smallest overlap matrix eigenvalue = 1.64E-03
 Attempting to make child job directory: /data/scratch/water_dimer_vfb_forward20240611233610//Frg1/
 Failed to make child job directory:     /data/scratch/water_dimer_vfb_forward20240611233610//Frg1/
 Attempting to make child job directory: /data/scratch/water_dimer_vfb_forward20240611233610//Frg2/
 Failed to make child job directory:     /data/scratch/water_dimer_vfb_forward20240611233610//Frg2/
 Creating input file /data/scratch/water_dimer_vfb_forward20240611233610/Frg1.input
 using default PutDataFrgm: nothing
 calling putenv with: QCSCRATCH=/data/scratch/water_dimer_vfb_forward20240611233610/ 
 Spawning Job For Fragment 0
 Done Job For Fragment 0
 calling putenv with: QCSCRATCH=/data/scratch 
 calling putenv with: QCTHREADS=16 
 Creating input file /data/scratch/water_dimer_vfb_forward20240611233610/Frg2.input
 using default PutDataFrgm: nothing
 calling putenv with: QCSCRATCH=/data/scratch/water_dimer_vfb_forward20240611233610/ 
 Spawning Job For Fragment 1
 Done Job For Fragment 1
 calling putenv with: QCSCRATCH=/data/scratch 
 calling putenv with: QCTHREADS=16 
 Time for running child jobs:  CPU 2.19 s  wall 4.54 s

 -----------------------------------------------------------------------
  General SCF calculation program by
  Eric Jon Sundstrom, Paul Horn, Yuezhi Mao, Dmitri Zuev, Alec White,
  David Stuck, Shaama M.S., Shane Yost, Joonho Lee, David Small,
  Daniel Levine, Susi Lehtola, Hugh Burton, Evgeny Epifanovsky,
  Bang C. Huynh
 -----------------------------------------------------------------------
Performing Restricted Closed Shell SCFMI
Doing General SCFMI
 Exchange:     0.1670 Hartree-Fock + 1.0000 wB97X-V + LR-HF
 Correlation:  1.0000 wB97X-V
 Using Euler-Maclaurin-Lebedev (75,302) quadrature formula
 Nonlocal Correlation:  VV10 with C = 0.0100 and b = 6.00 and scale = 1.00000
 Grid used for NLC:  SG-1 standard quadrature
performing fock build before subrot guess so that all methods have access
Printing subrot_rss_gen Method Specification:
Occupied Subspace Method is 0
Virtual Subspace Method is 0
Energy prior to optimization (guess energy) = -152.703634908590
Begin Timing: Total SCF Calculation
begin iterations for algorithm: DIIS         
the SCF tolerance is set to 1.00e-09
    1    -152.7036349086      6.05e-04     00000 
    2    -152.7047011764      1.78e-04     00000 
    3    -152.7047798187      7.28e-05     00000 
    4    -152.7047892445      4.19e-05     00000 
    5    -152.7047916404      1.43e-05     00000 
    6    -152.7047920277      2.38e-06     00000 
    7    -152.7047920371      1.27e-06     00000 
    8    -152.7047920390      3.50e-07     00000 
    9    -152.7047920393      6.71e-08     00000 
   10    -152.7047920393      1.74e-08     00000 
   11    -152.7047920393      3.11e-09     00000 
   12    -152.7047920393      7.47e-10     00000 Convergence criterion met
write pseudocanon occs and virts to disk
write pseudocanon orbital energies to disk
Timing for Total SCF: 4.00s (wall), 52.65s (cpu)
SCFMI Energy    -152.7047920393
<S^2>            0.00000
====================================================================
           Variational forward-backward (VFB) CT analysis           
 M. Loipersberger, Y. Mao and M. Head-Gordon, JCTC, 16, 1073 (2020) 
====================================================================
Calculating stabilization due to the forward (1->2) CT
Requested donor fragment: 1
updated OccSS dimension
        5
        5
updated VirtSS dimension
        68
        34
Energy prior to optimization (guess energy) = -152.704792039306
Begin Timing: Total SCF Calculation
begin iterations for algorithm: DIIS         
the SCF tolerance is set to 1.00e-09
    1    -152.7047920393      5.44e-04     00000 
    2    -152.7050312670      2.13e-05     00000 
    3    -152.7050342436      4.78e-06     00000 
    4    -152.7050343367      3.89e-06     00000 
    5    -152.7050343751      4.10e-07     00000 
    6    -152.7050343760      8.40e-08     00000 
    7    -152.7050343761      2.51e-08     00000 
    8    -152.7050343761      1.57e-08     00000 
    9    -152.7050343761      1.82e-09     00000 
[...]
   18  -0.0213889  -0.0184189  -0.0279897   0.1825122   0.1562983   0.3817515
 ----------------------------------------------------------------
             Standard Nuclear Orientation (Angstroms)
    I     Atom           X                Y                Z
 ----------------------------------------------------------------
    1      O      -1.6052994942     0.1181274224    -0.0000000000
    2      H      -1.9659103403    -0.7735626602     0.0000000000
    3      H      -0.6472282588     0.0031522359    -0.0000000000
    4      O       1.4572101877    -0.0933557530     0.0000000000
    5      H       1.8989265257     0.2861185347    -0.7669412002
    6      H       1.8989265257     0.2861185347     0.7669412002
 ----------------------------------------------------------------
 Nuclear Repulsion Energy =          35.53956516 hartrees
 There are       10 alpha and       10 beta electrons
 old dipole drv.
            1           2           3           4           5           6
    1  -0.6399060  -0.0521996   0.0000000   0.3017578   0.0009852   0.0000000
    2  -0.0642343  -0.4100148   0.0000000   0.0084837   0.1454807   0.0000000
    3   0.0000000   0.0000000  -0.6745899  -0.0000000  -0.0000000   0.3302350
            7           8           9          10          11          12
    1   0.4371525   0.0513459   0.0000000  -0.6344860   0.1402401   0.0000000
    2   0.0568698   0.2243150   0.0000000   0.1192690  -0.5237174   0.0000000
    3  -0.0000000  -0.0000000   0.2941622  -0.0000000  -0.0000000  -0.5173715
           13          14          15          16          17          18
    1   0.2677408  -0.0701859   0.0301200   0.2677408  -0.0701859  -0.0301200
    2  -0.0601941   0.2819681   0.0322544  -0.0601941   0.2819681  -0.0322544
    3   0.0176823   0.0273163   0.2837823  -0.0176823  -0.0273163   0.2837823
 New transposed dipole drv.
            1           2           3
    1  -0.6399060  -0.0642343   0.0000000
    2  -0.0521996  -0.4100148   0.0000000
    3   0.0000000   0.0000000  -0.6745899
    4   0.3017578   0.0084837  -0.0000000
    5   0.0009852   0.1454807  -0.0000000
    6   0.0000000   0.0000000   0.3302350
    7   0.4371525   0.0568698  -0.0000000
    8   0.0513459   0.2243150  -0.0000000
    9   0.0000000   0.0000000   0.2941622
   10  -0.6344860   0.1192690  -0.0000000
   11   0.1402401  -0.5237174  -0.0000000
   12   0.0000000   0.0000000  -0.5173715
   13   0.2677408  -0.0601941   0.0176823
   14  -0.0701859   0.2819681   0.0273163
   15   0.0301200   0.0322544   0.2837823
   16   0.2677408  -0.0601941  -0.0176823
   17  -0.0701859   0.2819681  -0.0273163
   18  -0.0301200  -0.0322544   0.2837823
FINAL TENSOR RESULT:
Order 2, Length 18
    Atom      X          Y          Z
     1 Order 1, Length 18
    Atom      X          Y          Z
     1    6.359861311497148e-01   1.082923633932451e-01   0.000000000000000e+00
     2   -1.108621597081505e-01  -1.994565900650325e-01   0.000000000000000e+00
     3   -5.225555621756046e-01   9.110244586319036e-02   0.000000000000000e+00
     4   -2.746678352560151e-03  -6.386599707361269e-05   0.000000000000000e+00
     5    8.914369570767736e-05   6.282974019968714e-05  -5.601813398557889e-04
     6    8.914369536251834e-05   6.282973995917738e-05   5.601813400173527e-04

Order 1, Length 18
    Atom      X          Y          Z
     1    1.082923633932451e-01   5.264833141557697e-01   0.000000000000000e+00
     2   -1.433344602208577e-01  -4.742782411006028e-01   0.000000000000000e+00
     3    3.578217577572328e-02  -5.385274194714460e-02   0.000000000000000e+00
     4   -1.784401149771425e-03   2.253817784700922e-03   0.000000000000000e+00
     5    5.221384851564514e-04  -3.030701535963065e-04  -7.839943172959263e-05
     6    5.221384856301272e-04  -3.030701535761110e-04   7.839943177365549e-05

Order 1, Length 18
    Atom      X          Y          Z
     1    0.000000000000000e+00   0.000000000000000e+00   2.749523666810836e-03
     2    0.000000000000000e+00   0.000000000000000e+00  -4.356083439876070e-04
     3    0.000000000000000e+00   0.000000000000000e+00  -4.168223758391567e-03
     4    0.000000000000000e+00   0.000000000000000e+00   2.856402065956278e-03
     5   -1.001554634032026e-03  -3.995107809787228e-05  -5.010256437558359e-04
     6    1.001554634032026e-03   3.995107809787228e-05  -5.010256437558359e-04


     2 Order 1, Length 18
    Atom      X          Y          Z
     1   -1.108621597081505e-01  -1.433344602208577e-01   0.000000000000000e+00
     2    1.274433705516299e-01   1.896384666960282e-01   0.000000000000000e+00
     3   -1.617376138467117e-02  -4.688471149899996e-02   0.000000000000000e+00
     4   -4.831225516875856e-04   6.072248876739665e-04   0.000000000000000e+00
     5    3.783821984403446e-05  -1.327478202555534e-05   8.439689330714331e-06
     6    3.783821934832734e-05  -1.327478211918890e-05  -8.439688640396280e-06

Order 1, Length 18
    Atom      X          Y          Z
     1   -1.994565900650325e-01  -4.742782411006028e-01   0.000000000000000e+00
     2    1.896384666960282e-01   4.734901879393539e-01   0.000000000000000e+00
     3    9.156908039359934e-03   9.566796720013148e-04   0.000000000000000e+00
     4    7.973741467559848e-04  -2.515941889125978e-04   0.000000000000000e+00
     5   -6.806654652328947e-05   4.147475307327950e-05   2.651664334142822e-06
     6   -6.806654646453901e-05   4.147475302187283e-05  -2.651665200712289e-06

Order 1, Length 18
    Atom      X          Y          Z
     1    0.000000000000000e+00   0.000000000000000e+00  -4.356083439876070e-04
     2    0.000000000000000e+00   0.000000000000000e+00   3.600046102111141e-04
     3    0.000000000000000e+00   0.000000000000000e+00   1.483720983960005e-04
     4    0.000000000000000e+00   0.000000000000000e+00  -3.144735148867480e-04
     5    6.027924797777964e-05   1.390934695097759e-04   1.208421741240339e-04
     6   -6.027924797777964e-05  -1.390934695097759e-04   1.208421741240339e-04


     3 Order 1, Length 18
    Atom      X          Y          Z
     1   -5.225555621756046e-01   3.578217577572328e-02   0.000000000000000e+00
     2   -1.617376138467117e-02   9.156908039359934e-03   0.000000000000000e+00
     3    5.430651749919261e-01  -4.442888386337149e-02   0.000000000000000e+00
     4   -3.798028436798926e-03  -7.060737094801398e-04   0.000000000000000e+00
     5   -2.689200160633154e-04   9.794593267026629e-05   1.046120723065110e-03
     6   -2.689200162946454e-04   9.794593261885962e-05  -1.046120723825194e-03

Order 1, Length 18
    Atom      X          Y          Z
     1    9.110244586319036e-02  -5.385274194714460e-02   0.000000000000000e+00
     2   -4.688471149899996e-02   9.566796720013148e-04   0.000000000000000e+00
     3   -4.442888386337149e-02   5.506114150240698e-02   0.000000000000000e+00
     4    2.339765848612443e-03  -2.808675929555272e-03   0.000000000000000e+00
     5   -1.064298671444215e-03   3.218022479186639e-04   2.151755928190646e-04
     6   -1.064298671591091e-03   3.218022480122975e-04  -2.151755931385203e-04

Order 1, Length 18
    Atom      X          Y          Z
     1    0.000000000000000e+00   0.000000000000000e+00  -4.168223758391567e-03
     2    0.000000000000000e+00   0.000000000000000e+00   1.483720983960005e-04
     3    0.000000000000000e+00   0.000000000000000e+00   7.498464486994103e-03
     4    0.000000000000000e+00   0.000000000000000e+00  -4.394132036940118e-03
     5    2.127108818243055e-03  -6.736370001051289e-05   4.577483371005415e-04
     6   -2.127108818243055e-03   6.736370001051289e-05   4.577483371005415e-04


     4 Order 1, Length 18
    Atom      X          Y          Z
     1   -2.746678352560151e-03  -1.784401149771425e-03   0.000000000000000e+00
     2   -4.831225516875856e-04   7.973741467559848e-04   0.000000000000000e+00
     3   -3.798028436798926e-03   2.339765848612443e-03   0.000000000000000e+00
     4    2.748217975327372e-01   2.249082696512824e-01   0.000000000000000e+00
     5   -1.338970230573528e-01  -1.131305232671628e-01   1.606289629588764e-01
     6   -1.338970230568865e-01  -1.131305232669315e-01  -1.606289629588581e-01

Order 1, Length 18
    Atom      X          Y          Z
     1   -6.386599707361269e-05   2.253817784700922e-03   0.000000000000000e+00
     2    6.072248876739665e-04  -2.515941889125978e-04   0.000000000000000e+00
     3   -7.060737094801398e-04  -2.808675929555272e-03   0.000000000000000e+00
     4    2.249082696512824e-01   1.947140529475062e-01   0.000000000000000e+00
     5   -1.123727864385738e-01  -9.695382705210211e-02   1.377398993055505e-01
     6   -1.123727864385481e-01  -9.695382705187627e-02  -1.377398993059948e-01

Order 1, Length 18
    Atom      X          Y          Z
     1    0.000000000000000e+00   0.000000000000000e+00   2.856402065956278e-03
     2    0.000000000000000e+00   0.000000000000000e+00  -3.144735148867480e-04
     3    0.000000000000000e+00   0.000000000000000e+00  -4.394132036940118e-03
     4    0.000000000000000e+00   0.000000000000000e+00   7.095309030896991e-01
     5    2.027151966085745e-01   1.746854190314354e-01  -3.538393633680478e-01
     6   -2.027151966085745e-01  -1.746854190314354e-01  -3.538393633680478e-01


     5 Order 1, Length 18
    Atom      X          Y          Z
     1    8.914369570767736e-05   5.221384851564514e-04  -1.001554634032026e-03
     2    3.783821984403446e-05  -6.806654652328947e-05   6.027924797777964e-05
     3   -2.689200160633154e-04  -1.064298671444215e-03   2.127108818243055e-03
     4   -1.338970230573528e-01  -1.123727864385738e-01   2.027151966085745e-01
     5    1.268185343746896e-01   1.069423136802483e-01  -1.825121733064139e-01
     6    7.220463431956373e-03   6.040717968671837e-03  -2.138885205421699e-02

Order 1, Length 18
    Atom      X          Y          Z
     1    6.282974019968714e-05  -3.030701535963065e-04  -3.995107809787228e-05
     2   -1.327478202555534e-05   4.147475307327950e-05   1.390934695097759e-04
     3    9.794593267026629e-05   3.218022479186639e-04  -6.736370001051289e-05
     4   -1.131305232671628e-01  -9.695382705210211e-02   1.746854190314354e-01
     5    1.069423136802483e-01   9.174554895487380e-02  -1.562982524481560e-01
     6    6.040717968671837e-03   5.148098893656619e-03  -1.841894230610317e-02

Order 1, Length 18
    Atom      X          Y          Z
     1   -5.601813398557889e-04  -7.839943172959263e-05  -5.010256437558359e-04
     2    8.439689330714331e-06   2.651664334142822e-06   1.208421741240339e-04
     3    1.046120723065110e-03   2.151755928190646e-04   4.577483371005415e-04
     4    1.606289629588764e-01   1.377398993055505e-01  -3.538393633680478e-01
     5   -1.825121733064139e-01  -1.562982524481560e-01   3.817515487356051e-01
     6    2.138885205421699e-02   1.841894230610317e-02  -2.798973617659940e-02


     6 Order 1, Length 18
    Atom      X          Y          Z
     1    8.914369536251834e-05   5.221384856301272e-04   1.001554634032026e-03
     2    3.783821934832734e-05  -6.806654646453901e-05  -6.027924797777964e-05
     3   -2.689200162946454e-04  -1.064298671591091e-03  -2.127108818243055e-03
     4   -1.338970230568865e-01  -1.123727864385481e-01  -2.027151966085745e-01
     5    7.220463431956373e-03   6.040717968671837e-03   2.138885205421699e-02
     6    1.268185343746896e-01   1.069423136802483e-01   1.825121733064139e-01

Order 1, Length 18
    Atom      X          Y          Z
     1    6.282973995917738e-05  -3.030701535761110e-04   3.995107809787228e-05
     2   -1.327478211918890e-05   4.147475302187283e-05  -1.390934695097759e-04
     3    9.794593261885962e-05   3.218022480122975e-04   6.736370001051289e-05
     4   -1.131305232669315e-01  -9.695382705187627e-02  -1.746854190314354e-01
     5    6.040717968671837e-03   5.148098893656619e-03   1.841894230610317e-02
     6    1.069423136802483e-01   9.174554895487380e-02   1.562982524481560e-01

Order 1, Length 18
    Atom      X          Y          Z
     1    5.601813400173527e-04   7.839943177365549e-05  -5.010256437558359e-04
     2   -8.439688640396280e-06  -2.651665200712289e-06   1.208421741240339e-04
     3   -1.046120723825194e-03  -2.151755931385203e-04   4.577483371005415e-04
     4   -1.606289629588581e-01  -1.377398993059948e-01  -3.538393633680478e-01
     5   -2.138885205421699e-02  -1.841894230610317e-02  -2.798973617659940e-02
     6    1.825121733064139e-01   1.562982524481560e-01   3.817515487356051e-01





 ###########################################
 # Finishing finite difference calculation #
 ###########################################

 Requested basis set is def2-SVPD
 There are 34 shells and 78 basis functions
 **********************************************************************
 **                                                                  **
 **                       VIBRATIONAL ANALYSIS                       **
 **                       --------------------                       **
 **                                                                  **
 **        VIBRATIONAL FREQUENCIES (CM**-1) AND NORMAL MODES         **
 **     FORCE CONSTANTS (mDYN/ANGSTROM) AND REDUCED MASSES (AMU)     **
 **                  INFRARED INTENSITIES (KM/MOL)                   **
 **                                                                  **
 **********************************************************************
 

 Mode:                 1                      2                      3
 Frequency:        97.80                 115.36                 123.61
 Force Cnst:      0.0060                 0.0089                 0.0094
 Red. Mass:       1.0616                 1.1340                 1.0443
 IR Active:          YES                    YES                    YES
 IR Intens:        1.012                216.850                150.756
 Raman Active:       YES                    YES                    YES
               X      Y      Z        X      Y      Z        X      Y      Z
 O         -0.000 -0.000 -0.045    0.075  0.010 -0.000   -0.000 -0.000 -0.043
 H          0.000 -0.000  0.097   -0.304  0.164  0.000    0.000 -0.000  0.792
 H          0.000  0.000  0.373    0.028 -0.381  0.000   -0.000  0.000 -0.138
 O         -0.000  0.000  0.040   -0.005 -0.051  0.000    0.000  0.000 -0.024
 H         -0.584  0.213 -0.193   -0.417  0.435  0.002    0.096  0.353  0.205
 H          0.584 -0.213 -0.193   -0.417  0.435 -0.002   -0.096 -0.353  0.205
 TransDip   0.000 -0.000  0.032   -0.409  0.235  0.000    0.000 -0.000  0.393

 Mode:                 4                      5                      6
 Frequency:       148.39                 265.65                 488.69
 Force Cnst:      0.0707                 0.0454                 0.1473
 Red. Mass:       5.4495                 1.0915                 1.0467
 IR Active:          YES                    YES                    YES
 IR Intens:       30.243                 90.435                136.556
 Raman Active:       YES                    YES                    YES
               X      Y      Z        X      Y      Z        X      Y      Z
 O         -0.359  0.023 -0.000   -0.030  0.009  0.000    0.000 -0.000 -0.032
 H         -0.557  0.101 -0.000    0.575 -0.237  0.000    0.000 -0.000  0.024
 H         -0.379 -0.187  0.000    0.040  0.598 -0.000    0.000  0.000  0.921
 O          0.405 -0.055  0.000    0.022 -0.064 -0.000   -0.000 -0.000 -0.040
 H          0.109  0.301  0.004   -0.244  0.254  0.002    0.254 -0.025  0.096
 H          0.109  0.301 -0.004   -0.244  0.254 -0.002   -0.254  0.025  0.096
 TransDip  -0.155  0.083 -0.000    0.049  0.301  0.000    0.000  0.000  0.374

 Mode:                 7                      8                      9
 Frequency:      1594.80                1612.58                3863.69
 Force Cnst:      1.6236                 1.6541                 9.2046
 Red. Mass:       1.0834                 1.0796                 1.0465
 IR Active:          YES                    YES                    YES
 IR Intens:       85.847                 60.492                 97.340
 Raman Active:       YES                    YES                    YES
               X      Y      Z        X      Y      Z        X      Y      Z
 O          0.005 -0.009  0.000    0.033 -0.060  0.000   -0.033  0.033  0.000
 H         -0.090  0.037 -0.000   -0.621  0.252 -0.000   -0.228 -0.473 -0.000
 H          0.011  0.101  0.000    0.089  0.720 -0.000    0.765 -0.056  0.000
 O         -0.054 -0.045  0.000    0.008  0.004  0.000   -0.014 -0.012 -0.000
 H          0.425  0.358  0.424   -0.066 -0.045 -0.061    0.111  0.095 -0.213
 H          0.425  0.358 -0.424   -0.066 -0.045  0.061    0.111  0.095  0.213
 TransDip   0.202  0.217  0.000   -0.161  0.190 -0.000    0.315 -0.020  0.000

 Mode:                10                     11                     12
 Frequency:      3872.44                3969.81                3974.87
 Force Cnst:      9.2326                10.0368                10.0786
 Red. Mass:       1.0450                 1.0810                 1.0827
 IR Active:          YES                    YES                    YES
 IR Intens:        9.475                144.900                 97.056
 Raman Active:       YES                    YES                    YES
               X      Y      Z        X      Y      Z        X      Y      Z
 O         -0.012  0.014  0.000   -0.055 -0.043  0.000    0.000  0.000 -0.000
 H         -0.097 -0.203 -0.000    0.318  0.758 -0.000   -0.000 -0.000  0.000
 H          0.287 -0.019 -0.000    0.560 -0.076 -0.000   -0.000  0.000 -0.001
 O          0.035  0.030 -0.000    0.001  0.001 -0.000   -0.000 -0.000 -0.071
 H         -0.281 -0.239  0.544   -0.007 -0.005  0.014   -0.325 -0.278  0.561
 H         -0.281 -0.239 -0.544   -0.007 -0.005 -0.014    0.325  0.278  0.561
 TransDip   0.000 -0.099  0.000    0.359  0.142  0.000   -0.000 -0.000  0.316

 STANDARD THERMODYNAMIC QUANTITIES AT   298.15 K  AND     1.00 ATM

   This Molecule has  0 Imaginary Frequencies
   Zero point vibrational energy:       28.774 kcal/mol

   Atom    1 Element O  Has Mass   15.99491
   Atom    2 Element H  Has Mass    1.00783
   Atom    3 Element H  Has Mass    1.00783
   Atom    4 Element O  Has Mass   15.99491
   Atom    5 Element H  Has Mass    1.00783
   Atom    6 Element H  Has Mass    1.00783
   Molecular Mass:    36.021140 amu
   Principal axes and moments of inertia in amu*Bohr^2:
                             1           2           3
    Eigenvalues --        7.99109   313.75420   314.23088
          X               0.99955     0.00000    -0.03006
          Y              -0.03006     0.00000    -0.99955
          Z               0.00000     1.00000     0.00000
   Rotational Symmetry Number is   1
   The Molecule is an Asymmetric Top
   Translational Enthalpy:        0.889 kcal/mol
   Rotational Enthalpy:           0.889 kcal/mol
   Vibrational Enthalpy:         30.961 kcal/mol
   gas constant (RT):             0.592 kcal/mol
   Translational Entropy:        36.674  cal/mol.K
   Rotational Entropy:           21.293  cal/mol.K
   Vibrational Entropy:          14.737  cal/mol.K

   Total Enthalpy:               33.331 kcal/mol
   Total Entropy:                72.705  cal/mol.K

   Quasi-RRHO corrections using alpha = 4, and omega = 100 cm^-1
   QRRHO-Vib. Enthalpy:          30.530 kcal/mol
   QRRHO-Vib. Entropy:           14.089  cal/mol.K
   QRRHO-Total Enthalpy:         32.900 kcal/mol
   QRRHO-Total Entropy:          72.057  cal/mol.K
 Total job time:  315.34s(wall), 3152.00s(cpu) 
 Tue Jun 11 23:45:14 2024

        *************************************************************
        *                                                           *
        *  Thank you very much for using Q-Chem.  Have a nice day.  *
        *                                                           *
        *************************************************************


