
Running Job 1 of 2 water_dimer_vfb_backward.in
qchem water_dimer_vfb_backward.in_2886461.0 /data/scratch/water_dimer_vfb_backward20240611233610/ 1
/opt/qchem/6.1/exe/qcprog.exe_s water_dimer_vfb_backward.in_2886461.0 /data/scratch/water_dimer_vfb_backward20240611233610/
                  Welcome to Q-Chem
     A Quantum Leap Into The Future Of Chemistry


 Q-Chem 6.1, Q-Chem, Inc., Pleasanton, CA (2023)

 E. Epifanovsky,  A. T. B. Gilbert,  Xintian Feng,  Joonho Lee,  Yuezhi Mao,  
 N. Mardirossian,  P. Pokhilko,  A. White,  M. Wormit,  M. P. Coons,  
 A. L. Dempwolff,  Zhengting Gan,  D. Hait,  P. R. Horn,  L. D. Jacobson,  
 I. Kaliman,  J. Kussmann,  A. W. Lange,  Ka Un Lao,  D. S. Levine,  Jie Liu,  
 S. C. McKenzie,  A. F. Morrison,  K. D. Nanda,  F. Plasser,  D. R. Rehn,  
 M. L. Vidal,  Zhi-Qiang You,  Ying Zhu,  B. Alam,  B. Albrecht,  
 A. Aldossary,  E. Alguire,  J. H. Andersen,  V. Athavale,  D. Barton,  
 K. Begam,  A. Behn,  N. Bellonzi,  Y. A. Bernard,  E. J. Berquist,  
 H. Burton,  A. Carreras,  K. Carter-Fenk,  Mathew Chow,  Romit Chakraborty,  
 Chandrima Chakravarty,  Junhan Chen,  A. D. Chien,  K. D. Closser,  
 V. Cofer-Shabica,  L. Cunha,  S. Dasgupta,  Jia Deng,  M. de Wergifosse,  
 M. Diedenhofen,  Hainam Do,  S. Ehlert,  Po-Tung Fang,  S. Fatehi,  
 Qingguo Feng,  T. Friedhoff,  Thomas Froitzheim,  B. Ganoe,  J. Gayvert,  
 Qinghui Ge,  G. Gidofalvi,  M. Gimferrer,  M. Goldey,  Montgomery Gray,  
 J. Gomes,  C. Gonzalez-Espinoza,  S. Gulania,  A. Gunina,  J. A. Gyamfi,  
 M. W. D. Hanson-Heine,  P. H. P. Harbach,  A. W. Hauser,  M. F. Herbst,  
 M. Hernandez Vera,  M. Hodecker,  Z. C. Holden,  S. Houck,  Xunkun Huang,  
 Kerwin Hui,  B. C. Huynh,  K. Ikeda,  M. Ivanov,  Hyunjun Ji,  Zuxin Jin,  
 Hanjie Jiang,  Subrata Jana,  B. Kaduk,  S. Kaehler,  R. Kang,  
 K. Khistyaev,  Jaehoon Kim,  Yongbin Kim,  P. Klunzinger,  Z. Koczor-Benda,  
 Joong Hoon Koh,  D. Kosenkov,  Saikiran Kotaru,  L. Koulias,  T. Kowalczyk,  
 C. M. Krauter,  K. Kue,  A. Kunitsa,  T. Kus,  A. Landau,  K. V. Lawler,  
 D. Lefrancois,  S. Lehtola,  Rain Li,  Shaozhi Li,  Yi-Pei Li,  
 Jiashu Liang,  M. Liebenthal,  Hung-Hsuan Lin,  You-Sheng Lin,  Fenglai Liu,  
 Kuan-Yu Liu,  Xiao Liu,  M. Loipersberger,  A. Luenser,  C. Malbon,  
 A. Manjanath,  P. Manohar,  E. Mansoor,  S. F. Manzer,  Shan-Ping Mao,  
 A. V. Marenich,  T. Markovich,  S. Mason,  F. Matz,  S. A. Maurer,  
 P. F. McLaughlin,  M. F. S. J. Menger,  J.-M. Mewes,  S. A. Mewes,  
 P. Morgante,  Mohammad Mostafanejad,  J. W. Mullinax,  K. J. Oosterbaan,  
 G. Paran,  V. Parravicini,  Alexander C. Paul,  Suranjan K. Paul,  
 F. Pavosevic,  Zheng Pei,  S. Prager,  E. I. Proynov,  E. Ramos,  B. Rana,  
 A. E. Rask,  A. Rettig,  R. M. Richard,  F. Rob,  E. Rossomme,  T. Scheele,  
 M. Scheurer,  M. Schneider,  P. E. Schneider,  Tim K. Schramm,  N. Sergueev,  
 S. M. Sharada,  M. Sharma,  Hengyuan Shen,  W. Skomorowski,  D. W. Small,  
 C. J. Stein,  Alistair J. Sterling,  Yingli Su,  Yu-Chuan Su,  
 E. J. Sundstrom,  J. Talbot,  Zhen Tao,  J. Thirman,  Hung-Yi Tsai,  
 T. Tsuchimochi,  N. M. Tubman,  C. Utku,  S. P. Veccham,  O. Vydrov,  
 J. Wenzel,  Jonathan Wong,  J. Witte,  A. Yamada,  Chou-Hsun Yang,  Kun Yao,  
 S. Yeganeh,  S. R. Yost,  A. Zech,  F. Zeller,  Igor Ying Zhang,  
 Xing Zhang,  Yu Zhang,  D. Zuev,  A. Aspuru-Guzik,  A. T. Bell,  
 N. A. Besley,  K. B. Bravaya,  B. R. Brooks,  D. Casanova,  Jeng-Da Chai,  
 Hsing-Ta Chen,  S. Coriani,  C. J. Cramer,  A. E. DePrince, III,  
 R. A. DiStasio Jr.,  A. Dreuw,  B. D. Dunietz,  T. R. Furlani,  
 W. A. Goddard III,  S. Grimme,  S. Hammes-Schiffer,  T. Head-Gordon,  
 W. J. Hehre,  Chao-Ping Hsu,  T.-C. Jagau,  Yousung Jung,  A. Klamt,  
 Jing Kong,  D. S. Lambrecht,  Xiangyuan Li,  WanZhen Liang,  N. J. Mayhall,  
 C. W. McCurdy,  J. B. Neaton,  T. Neudecker,  C. Ochsenfeld,  
 J. A. Parkhill,  R. Peverati,  V. A. Rassolov,  Haisheng Ren,  Yihan Shao,  
 L. V. Slipchenko,  R. P. Steele,  J. E. Subotnik,  A. J. W. Thom,  
 A. Tkatchenko,  D. G. Truhlar,  T. Van Voorhis,  Fan Wang,  
 T. A. Wesolowski,  K. B. Whaley,  H. L. Woodcock III,  P. M. Zimmerman,  
 S. Faraji,  P. M. W. Gill,  M. Head-Gordon,  J. M. Herbert,  A. I. Krylov

 Contributors to earlier versions of Q-Chem not listed above: 
 R. D. Adamson,  B. Austin,  R. Baer,  J. Baker,  G. J. O. Beran,  
 K. Brandhorst,  S. T. Brown,  E. F. C. Byrd,  Arup K. Chakraborty,  
 G. K. L. Chan,  Chun-Min Chang,  Yunqing Chen,  C.-L. Cheng,  
 Siu Hung Chien,  D. M. Chipman,  D. L. Crittenden,  H. Dachsel,  
 R. J. Doerksen,  A. D. Dutoi,  R. G. Edgar,  J. Fosso-Tande,  
 L. Fusti-Molnar,  D. Ghosh,  A. Ghysels,  A. Golubeva-Zadorozhnaya,  
 J. Gonthier,  M. S. Gordon,  S. R. Gwaltney,  G. Hawkins,  J. E. Herr,  
 A. Heyden,  S. Hirata,  E. G. Hohenstein,  G. Kedziora,  F. J. Keil,  
 C. Kelley,  Jihan Kim,  R. A. King,  R. Z. Khaliullin,  P. P. Korambath,  
 W. Kurlancheek,  A. Laurent,  A. M. Lee,  M. S. Lee,  S. V. Levchenko,  
 Ching Yeh Lin,  D. Liotard,  E. Livshits,  R. C. Lochan,  I. Lotan,  
 L. A. Martinez-Martinez,  P. E. Maslen,  N. Nair,  D. P. O'Neill,  
 D. Neuhauser,  E. Neuscamman,  C. M. Oana,  R. Olivares-Amaya,  R. Olson,  
 T. M. Perrine,  B. Peters,  P. A. Pieniazek,  A. Prociuk,  Y. M. Rhee,  
 J. Ritchie,  M. A. Rohrdanz,  E. Rosta,  N. J. Russ,  H. F. Schaefer III,  
 M. W. Schmidt,  N. E. Schultz,  S. Sharma,  N. Shenvi,  C. D. Sherrill,  
 A. C. Simmonett,  A. Sodt,  T. Stein,  D. Stuck,  K. S. Thanthiriwatte,  
 V. Vanovschi,  L. Vogt,  Tao Wang,  A. Warshel,  M. A. Watson,  
 C. F. Williams,  Q. Wu,  X. Xu,  Jun Yang,  W. Zhang,  Yan Zhao

   Please cite Q-Chem as follows:
  "Software for the frontiers of quantum chemistry:
   An overview of developments in the Q-Chem 5 package"
   J. Chem. Phys. 155, 084801 (2021)
   https://doi.org/10.1063/5.0055522 (open access)

 Q-Chem 6.1.1 for Intel X86 EM64T Linux

 Parts of Q-Chem use Armadillo 9.900.5 (Nocturnal Misbehaviour).
 http://arma.sourceforge.net/

 Q-Chem begins on Tue Jun 11 23:36:11 2024  

 Host: 
0

     Scratch files written to /data/scratch/water_dimer_vfb_backward20240611233610//
 Jan1824 |scratch|qcdevops|jenkins|workspace|build_RNUM -1
 Processing $rem in /opt/qchem/6.1/config/preferences:
 Processing $rem in /home/ymao/.qchemrc:

 Checking the input file for inconsistencies... 	...done.

--------------------------------------------------------------
User input:
--------------------------------------------------------------
$molecule
0 1
--
0 1
O   -1.5159833896  -0.1193890907   0.0000000000
H   -1.9250204525   0.7508887318   0.0000000000
H   -0.5596244397   0.0434521346   0.0000000000
--
0 1
O    1.3771370726   0.0974879313   0.0000000000
H    1.7557156045  -0.3445398535   0.7677278624
H    1.7557156045  -0.3445398535  -0.7677278624
$end

$rem
JOBTYPE  OPT
GEN_SCFMAN  TRUE
VFB_CTA  BACKWARD
METHOD  WB97X-V
BASIS  DEF2-SVPD
UNRESTRICTED  FALSE
MAX_SCF_CYCLES  2000
THRESH  14
SCF_CONVERGENCE  9
MEM_TOTAL  8000
MEM_STATIC  2000
SCF_GUESS  FRAGMO
SYMMETRY  FALSE
SYM_IGNORE  FALSE
SCF_ALGORITHM  DIIS
BASIS_LIN_DEP_THRESH  6
IDERIV  1
SCFMI_MODE  0
XC_GRID  000075000302
NL_GRID  1
FD_MAT_VEC_PROD  FALSE
GEOM_OPT_TOL_GRADIENT  50
GEOM_OPT_TOL_DISPLACEMENT  50
GEOM_OPT_TOL_ENERGY  10
GEOM_OPT_DRIVER  OPTIMIZE
GEOM_OPT_MAX_CYCLES  200
$end

--------------------------------------------------------------
 ----------------------------------------------------------------
             Standard Nuclear Orientation (Angstroms)
    I     Atom           X                Y                Z
 ----------------------------------------------------------------
    1      O      -1.5113456744     0.1214764909     0.0000000000
    2      H      -1.9235953655    -0.7472841202    -0.0000000000
    3      H      -0.5555949024    -0.0448970874    -0.0000000000
    4      O       1.3809537443    -0.1060882783    -0.0000000000
    5      H       1.7611628546     0.3345377534    -0.7677278624
    6      H       1.7611628546     0.3345377534     0.7677278624
 ----------------------------------------------------------------
 Molecular Point Group                 Cs    NOp =  2
 Largest Abelian Subgroup              Cs    NOp =  2
 Nuclear Repulsion Energy =          36.57215600 hartrees
 There are       10 alpha and       10 beta electrons
 Requested basis set is def2-SVPD
 There are 34 shells and 78 basis functions

 Total QAlloc Memory Limit   8000 MB
 Mega-Array Size      1956 MB
 MEM_STATIC part      2000 MB

 A cutoff of  1.0D-14 yielded    594 shell pairs
 There are      3162 function pairs (      3504 Cartesian)
 Smallest overlap matrix eigenvalue = 1.55E-03

 Scale SEOQF with 1.000000e-01/1.000000e-01/1.000000e-01

 Standard Electronic Orientation quadrupole field applied
 Nucleus-field energy     =     0.0000000015 hartrees
 Attempting to make child job directory: /data/scratch/water_dimer_vfb_backward20240611233610//Frg1/
 Attempting to make child job directory: /data/scratch/water_dimer_vfb_backward20240611233610//Frg2/
 Creating input file /data/scratch/water_dimer_vfb_backward20240611233610/Frg1.input
 using default PutDataFrgm: nothing
 calling putenv with: QCSCRATCH=/data/scratch/water_dimer_vfb_backward20240611233610/ 
 Spawning Job For Fragment 0
 Done Job For Fragment 0
 calling putenv with: QCSCRATCH=/data/scratch 
 calling putenv with: QCTHREADS=16 
 Creating input file /data/scratch/water_dimer_vfb_backward20240611233610/Frg2.input
 using default PutDataFrgm: nothing
 calling putenv with: QCSCRATCH=/data/scratch/water_dimer_vfb_backward20240611233610/ 
 Spawning Job For Fragment 1
 Done Job For Fragment 1
 calling putenv with: QCSCRATCH=/data/scratch 
 calling putenv with: QCTHREADS=16 
 Time for running child jobs:  CPU 2.71 s  wall 4.71 s

 -----------------------------------------------------------------------
  General SCF calculation program by
  Eric Jon Sundstrom, Paul Horn, Yuezhi Mao, Dmitri Zuev, Alec White,
  David Stuck, Shaama M.S., Shane Yost, Joonho Lee, David Small,
  Daniel Levine, Susi Lehtola, Hugh Burton, Evgeny Epifanovsky,
  Bang C. Huynh
 -----------------------------------------------------------------------
Performing Restricted Closed Shell SCFMI
Doing General SCFMI
 Exchange:     0.1670 Hartree-Fock + 1.0000 wB97X-V + LR-HF
 Correlation:  1.0000 wB97X-V
 Using Euler-Maclaurin-Lebedev (75,302) quadrature formula
 Nonlocal Correlation:  VV10 with C = 0.0100 and b = 6.00 and scale = 1.00000
 Grid used for NLC:  SG-1 standard quadrature
performing fock build before subrot guess so that all methods have access
 using 16 threads for integral computing
 -------------------------------------------------------
 OpenMP Integral computing Module                
 Release: version 1.0, May 2013, Q-Chem Inc. Pittsburgh 
 -------------------------------------------------------
Printing subrot_rss_gen Method Specification:
Occupied Subspace Method is 0
Virtual Subspace Method is 0
Energy prior to optimization (guess energy) = -152.702268208700
Begin Timing: Total SCF Calculation
begin iterations for algorithm: DIIS         
the SCF tolerance is set to 1.00e-09
    1    -152.7022682087      7.71e-04     00000 
    2    -152.7040121384      2.19e-04     00000 
    3    -152.7041443411      9.11e-05     00000 
    4    -152.7041611608      5.43e-05     00000 
    5    -152.7041656980      2.00e-05     00000 
    6    -152.7041667538      4.10e-06     00000 
    7    -152.7041667916      1.06e-06     00000 
    8    -152.7041667934      6.91e-07     00000 
    9    -152.7041667941      1.52e-07     00000 
   10    -152.7041667942      4.49e-08     00000 
   11    -152.7041667942      1.07e-08     00000 
   12    -152.7041667942      2.48e-09     00000 
   13    -152.7041667942      6.31e-10     00000 Convergence criterion met
write pseudocanon occs and virts to disk
write pseudocanon orbital energies to disk
Timing for Total SCF: 4.00s (wall), 58.30s (cpu)
SCFMI Energy    -152.7041667942
<S^2>            0.00000
====================================================================
           Variational forward-backward (VFB) CT analysis           
 M. Loipersberger, Y. Mao and M. Head-Gordon, JCTC, 16, 1073 (2020) 
====================================================================
Calculating stabilization due to the backward (2->1) CT
Requested donor fragment: 2
updated OccSS dimension
        5
        5
updated VirtSS dimension
        34
        68
Energy prior to optimization (guess energy) = -152.704166794210
Begin Timing: Total SCF Calculation
begin iterations for algorithm: DIIS         
the SCF tolerance is set to 1.00e-09
    1    -152.7041667942      7.89e-04     00000 
    2    -152.7070628184      1.41e-04     00000 
    3    -152.7071779650      7.63e-05     00000 
    4    -152.7071916979      2.21e-05     00000 
    5    -152.7071932697      1.88e-06     00000 
    6    -152.7071932908      5.49e-07     00000 
    7    -152.7071932923      2.79e-07     00000 
    8    -152.7071932925      8.90e-08     00000 
    9    -152.7071932926      2.41e-08     00000 
   10    -152.7071932926      5.95e-09     00000 
   11    -152.7071932926      9.31e-10     00000 Convergence criterion met
write pseudocanon occs and virts to disk
write pseudocanon orbital energies to disk
Timing for Total SCF: 3.00s (wall), 48.99s (cpu)
Energy of the one-side CT state:     -152.7071932926
Stabilization due to one-side CT:    -7.9462 kJ/mol
<S^2>            0.00000
 Total energy in the final basis set =     -152.7071932926
    ==================================================
        The end of Object-Oriented SCFman: SCFMI      
    ==================================================
 
 --------------------------------------------------------------
             Orbital Energies (a.u.) and Symmetries
 --------------------------------------------------------------
 
 Alpha MOs, Restricted
 -- Occupied --                  
-19.263 -19.205  -1.159  -1.101  -0.676  -0.626  -0.536  -0.478
  1 A'    2 A'    3 A'    4 A'    1 A"    5 A'    6 A'    7 A'                 
 -0.455  -0.404
  8 A'    2 A"                                                                 
 -- Virtual --                   
  0.061   0.109   0.121   0.149   0.174   0.192   0.210   0.230
  9 A'   10 A'    3 A"   11 A'   12 A'    4 A"   13 A'   14 A'                 
  0.239   0.268   0.288   0.291   0.315   0.336   0.359   0.392
  5 A"   15 A'    6 A"   16 A'   17 A'   18 A'    7 A"   19 A'                 
  0.419   0.437   0.448   0.449   0.484   0.490   0.500   0.605
  8 A"   20 A'   21 A'    9 A"   10 A"   22 A'   23 A'   24 A'                 
  0.610   0.641   0.678   0.684   0.684   0.724   0.748   0.759
 11 A"   25 A'   26 A'   27 A'   12 A"   13 A"   28 A'   14 A"                 
  0.779   0.865   1.041   1.067   1.107   1.176   1.314   1.435
 29 A'   30 A'   31 A'   32 A'   15 A"   33 A'   34 A'   35 A'                 
  1.437   1.617   1.617   1.668   1.737   1.796   1.845   1.864
 16 A"   17 A"   36 A'   37 A'   38 A'   18 A"   19 A"   39 A'                 
  1.972   2.024   2.059   2.063   2.122   2.167   2.335   2.451
 40 A'   20 A"   41 A'   21 A"   42 A'   43 A'   22 A"   44 A'                 
  2.477   2.606   3.120   3.127   3.141   3.206   3.292   3.339
 45 A'   46 A'   47 A'   23 A"   24 A"   25 A"   48 A'   49 A'                 
  3.726   3.806   4.111   4.198
 50 A'   51 A'   26 A"   52 A'                                                 
 
 Beta MOs, Restricted
 -- Occupied --                  
-19.263 -19.205  -1.159  -1.101  -0.676  -0.626  -0.536  -0.478
  1 A'    2 A'    3 A'    4 A'    1 A"    5 A'    6 A'    7 A'                 
 -0.455  -0.404
  8 A'    2 A"                                                                 
 -- Virtual --                   
  0.061   0.109   0.121   0.149   0.174   0.192   0.210   0.230
  9 A'   10 A'    3 A"   11 A'   12 A'    4 A"   13 A'   14 A'                 
  0.239   0.268   0.288   0.291   0.315   0.336   0.359   0.392
  5 A"   15 A'    6 A"   16 A'   17 A'   18 A'    7 A"   19 A'                 
  0.419   0.437   0.448   0.449   0.484   0.490   0.500   0.605
  8 A"   20 A'   21 A'    9 A"   10 A"   22 A'   23 A'   24 A'                 
  0.610   0.641   0.678   0.684   0.684   0.724   0.748   0.759
 11 A"   25 A'   26 A'   27 A'   12 A"   13 A"   28 A'   14 A"                 
  0.779   0.865   1.041   1.067   1.107   1.176   1.314   1.435
 29 A'   30 A'   31 A'   32 A'   15 A"   33 A'   34 A'   35 A'                 
  1.437   1.617   1.617   1.668   1.737   1.796   1.845   1.864
 16 A"   17 A"   36 A'   37 A'   38 A'   18 A"   19 A"   39 A'                 
  1.972   2.024   2.059   2.063   2.122   2.167   2.335   2.451
 40 A'   20 A"   41 A'   21 A"   42 A'   43 A'   22 A"   44 A'                 
  2.477   2.606   3.120   3.127   3.141   3.206   3.292   3.339
 45 A'   46 A'   47 A'   23 A"   24 A"   25 A"   48 A'   49 A'                 
  3.726   3.806   4.111   4.198
 50 A'   51 A'   26 A"   52 A'                                                 
 --------------------------------------------------------------
 
          Ground-State Mulliken Net Atomic Charges

     Atom                 Charge (a.u.)
  ----------------------------------------
      1 O                    -0.292396
      2 H                     0.128592
      3 H                     0.136034
      4 O                    -0.293559
      5 H                     0.160664
      6 H                     0.160664
  ----------------------------------------
  Sum of atomic charges =     0.000000

 -----------------------------------------------------------------
                    Cartesian Multipole Moments
 -----------------------------------------------------------------
    Charge (ESU x 10^10)
                 0.0000
    Dipole Moment (Debye)
         X       2.7644      Y      -0.2213      Z      -0.0000
       Tot       2.7732
    Quadrupole Moments (Debye-Ang)
        XX     -11.1480     XY       6.1543     YY     -13.2444
        XZ       0.0000     YZ      -0.0000     ZZ     -12.2368
    Octopole Moments (Debye-Ang^2)
       XXX       9.2947    XXY      -1.4255    XYY      -1.0387
       YYY      -0.7181    XXZ      -0.0000    XYZ      -0.0000
       YYZ      -0.0000    XZZ       6.4310    YZZ       0.7576
       ZZZ       0.0000
    Hexadecapole Moments (Debye-Ang^3)
      XXXX    -170.5950   XXXY      24.4705   XXYY     -31.3777
      XYYY       4.7751   YYYY     -15.8015   XXXZ       0.0000
      XXYZ      -0.0000   XYYZ      -0.0000   YYYZ       0.0000
      XXZZ     -28.9984   XYZZ       2.4528   YYZZ      -5.2099
      XZZZ       0.0000   YZZZ       0.0000   ZZZZ     -14.7213
 -----------------------------------------------------------------
 Calculating analytic gradient of the SCF energy
 Gradient of SCF Energy
            1           2           3           4           5           6
    1   0.0002007   0.0000110   0.0000675  -0.0004051   0.0000629   0.0000629
    2   0.0001310  -0.0000655  -0.0001398   0.0000894  -0.0000075  -0.0000075
    3   0.0000000  -0.0000000   0.0000000  -0.0000000  -0.0000230   0.0000230
 Max gradient component =       4.051E-04
 RMS gradient           =       1.218E-04
 Gradient time:  CPU 12.98 s  wall 0.81 s
 Geometry Optimization Parameters
   NAtoms,    NIC,     NZ,  NCons,   NDum,   NFix, NCnnct, MaxDiis
        6      25       0       0       0       0       0       0


** GEOMETRY OPTIMIZATION IN DELOCALIZED INTERNAL COORDINATES **
   Searching for a Minimum

   Optimization Cycle:   1

                       Coordinates (Angstroms)
     ATOM                X               Y               Z
      1  O        -1.5113456744    0.1214764909    0.0000000000
      2  H        -1.9235953655   -0.7472841202    0.0000000000
      3  H        -0.5555949024   -0.0448970874    0.0000000000
      4  O         1.3809537443   -0.1060882783    0.0000000000
      5  H         1.7611628546    0.3345377534   -0.7677278624
      6  H         1.7611628546    0.3345377534    0.7677278624
   Point Group: cs    Number of degrees of freedom:     8


   Energy is   -152.707193293


 Attempting to generate delocalized internal coordinates
 Initial Hessian constructed with Jon Baker's OPTIMIZE code

  8 Hessian modes will be used to form the next step
  Hessian Eigenvalues:
     0.047844    0.073968    0.160000    0.160001    0.199780    0.533505
     0.547490    0.551284

 Minimum search - taking simple RFO step
 Searching for Lamda that Minimizes Along All modes
 Value Taken    Lamda =  -0.00000196
 Step Taken.  Stepsize is  0.006055

                             Maximum     Tolerance    Cnvgd?
         Gradient           0.000277      0.000050      NO
         Displacement       0.003596      0.000050      NO
         Energy change     *********      0.000000      NO


 New Cartesian Coordinates Obtained by Inverse Iteration

 Displacement from previous Coordinates is:  0.006929
 ----------------------------------------------------------------
             Standard Nuclear Orientation (Angstroms)
    I     Atom           X                Y                Z
 ----------------------------------------------------------------
    1      O      -1.5128132269     0.1212033365     0.0000000000
    2      H      -1.9252402721    -0.7474157654     0.0000000000
    3      H      -0.5568371443    -0.0450153818     0.0000000000
    4      O       1.3828196323    -0.1063205849     0.0000000000
    5      H       1.7624072610     0.3349154537    -0.7676372473
    6      H       1.7624072610     0.3349154537     0.7676372473
 ----------------------------------------------------------------
 Molecular Point Group                 Cs    NOp =  2
 Largest Abelian Subgroup              Cs    NOp =  2
 Nuclear Repulsion Energy =          36.55110782 hartrees
 There are       10 alpha and       10 beta electrons
 Applying Cartesian multipole field
    Component          Value
    ---------          -----
     (2,0,0)        1.00000E-11
     (0,2,0)        2.00000E-11
     (0,0,2)       -3.00000E-11
 Nucleus-field energy     =     0.0000000015 hartrees
 Requested basis set is def2-SVPD
 There are 34 shells and 78 basis functions
 A cutoff of  1.0D-14 yielded    594 shell pairs
 There are      3162 function pairs (      3504 Cartesian)
 Smallest overlap matrix eigenvalue = 1.55E-03
 Attempting to make child job directory: /data/scratch/water_dimer_vfb_backward20240611233610//Frg1/
 Failed to make child job directory:     /data/scratch/water_dimer_vfb_backward20240611233610//Frg1/
 Attempting to make child job directory: /data/scratch/water_dimer_vfb_backward20240611233610//Frg2/
 Failed to make child job directory:     /data/scratch/water_dimer_vfb_backward20240611233610//Frg2/
 Creating input file /data/scratch/water_dimer_vfb_backward20240611233610/Frg1.input
 using default PutDataFrgm: nothing
 calling putenv with: QCSCRATCH=/data/scratch/water_dimer_vfb_backward20240611233610/ 
 Spawning Job For Fragment 0
 Done Job For Fragment 0
 calling putenv with: QCSCRATCH=/data/scratch 
 calling putenv with: QCTHREADS=16 
 Creating input file /data/scratch/water_dimer_vfb_backward20240611233610/Frg2.input
 using default PutDataFrgm: nothing
 calling putenv with: QCSCRATCH=/data/scratch/water_dimer_vfb_backward20240611233610/ 
 Spawning Job For Fragment 1
 Done Job For Fragment 1
 calling putenv with: QCSCRATCH=/data/scratch 
 calling putenv with: QCTHREADS=16 
 Time for running child jobs:  CPU 2.44 s  wall 4.52 s

 -----------------------------------------------------------------------
  General SCF calculation program by
  Eric Jon Sundstrom, Paul Horn, Yuezhi Mao, Dmitri Zuev, Alec White,
  David Stuck, Shaama M.S., Shane Yost, Joonho Lee, David Small,
  Daniel Levine, Susi Lehtola, Hugh Burton, Evgeny Epifanovsky,
  Bang C. Huynh
 -----------------------------------------------------------------------
Performing Restricted Closed Shell SCFMI
Doing General SCFMI
 Exchange:     0.1670 Hartree-Fock + 1.0000 wB97X-V + LR-HF
 Correlation:  1.0000 wB97X-V
 Using Euler-Maclaurin-Lebedev (75,302) quadrature formula
 Nonlocal Correlation:  VV10 with C = 0.0100 and b = 6.00 and scale = 1.00000
 Grid used for NLC:  SG-1 standard quadrature
performing fock build before subrot guess so that all methods have access
Printing subrot_rss_gen Method Specification:
Occupied Subspace Method is 0
Virtual Subspace Method is 0
Energy prior to optimization (guess energy) = -152.702306275117
Begin Timing: Total SCF Calculation
begin iterations for algorithm: DIIS         
the SCF tolerance is set to 1.00e-09
    1    -152.7023062751      7.68e-04     00000 
    2    -152.7040350842      2.19e-04     00000 
    3    -152.7041661174      9.03e-05     00000 
    4    -152.7041827126      5.39e-05     00000 
    5    -152.7041871633      1.99e-05     00000 
    6    -152.7041881998      4.06e-06     00000 
    7    -152.7041882369      1.01e-06     00000 
    8    -152.7041882386      6.63e-07     00000 
    9    -152.7041882392      1.52e-07     00000 
   10    -152.7041882393      4.43e-08     00000 
   11    -152.7041882393      1.05e-08     00000 
   12    -152.7041882393      2.44e-09     00000 
   13    -152.7041882393      6.20e-10     00000 Convergence criterion met
write pseudocanon occs and virts to disk
write pseudocanon orbital energies to disk
Timing for Total SCF: 3.00s (wall), 57.73s (cpu)
SCFMI Energy    -152.7041882393
<S^2>            0.00000
====================================================================
           Variational forward-backward (VFB) CT analysis           
 M. Loipersberger, Y. Mao and M. Head-Gordon, JCTC, 16, 1073 (2020) 
====================================================================
Calculating stabilization due to the backward (2->1) CT
Requested donor fragment: 2
updated OccSS dimension
        5
        5
updated VirtSS dimension
        34
        68
Energy prior to optimization (guess energy) = -152.704188239320
Begin Timing: Total SCF Calculation
begin iterations for algorithm: DIIS         
the SCF tolerance is set to 1.00e-09
    1    -152.7041882393      7.86e-04     00000 
    2    -152.7070652553      1.40e-04     00000 
    3    -152.7071798068      7.59e-05     00000 
    4    -152.7071933773      2.20e-05     00000 
    5    -152.7071949385      1.88e-06     00000 
    6    -152.7071949595      5.48e-07     00000 
    7    -152.7071949609      2.79e-07     00000 
    8    -152.7071949612      8.85e-08     00000 
    9    -152.7071949613      2.39e-08     00000 
   10    -152.7071949613      5.89e-09     00000 
   11    -152.7071949613      9.24e-10     00000 Convergence criterion met
write pseudocanon occs and virts to disk
write pseudocanon orbital energies to disk
Timing for Total SCF: 3.00s (wall), 48.51s (cpu)
Energy of the one-side CT state:     -152.7071949613
Stabilization due to one-side CT:    -7.8942 kJ/mol
<S^2>            0.00000
 Total energy in the final basis set =     -152.7071949613
    ==================================================
        The end of Object-Oriented SCFman: SCFMI      
    ==================================================
 
 --------------------------------------------------------------
             Orbital Energies (a.u.) and Symmetries
 --------------------------------------------------------------
 
 Alpha MOs, Restricted
 -- Occupied --                  
-19.263 -19.206  -1.159  -1.101  -0.676  -0.626  -0.536  -0.478
  1 A'    2 A'    3 A'    4 A'    1 A"    5 A'    6 A'    7 A'                 
 -0.455  -0.404
  8 A'    2 A"                                                                 
 -- Virtual --                   
  0.061   0.109   0.121   0.149   0.174   0.192   0.210   0.230
  9 A'   10 A'    3 A"   11 A'   12 A'    4 A"   13 A'   14 A'                 
  0.239   0.268   0.288   0.291   0.315   0.335   0.359   0.392
  5 A"   15 A'    6 A"   16 A'   17 A'   18 A'    7 A"   19 A'                 
  0.419   0.437   0.448   0.448   0.484   0.490   0.500   0.605
  8 A"   20 A'   21 A'    9 A"   10 A"   22 A'   23 A'   24 A'                 
  0.610   0.641   0.678   0.684   0.684   0.724   0.748   0.759
 11 A"   25 A'   26 A'   27 A'   12 A"   13 A"   28 A'   14 A"                 
  0.779   0.864   1.041   1.067   1.107   1.176   1.314   1.435
 29 A'   30 A'   31 A'   32 A'   15 A"   33 A'   34 A'   35 A'                 
  1.437   1.617   1.617   1.668   1.737   1.796   1.845   1.864
 16 A"   36 A'   17 A"   37 A'   38 A'   18 A"   19 A"   39 A'                 
  1.972   2.024   2.059   2.062   2.121   2.167   2.335   2.451
 40 A'   20 A"   41 A'   21 A"   42 A'   43 A'   22 A"   44 A'                 
  2.477   2.604   3.120   3.127   3.140   3.206   3.292   3.339
 45 A'   46 A'   47 A'   23 A"   24 A"   25 A"   48 A'   49 A'                 
  3.726   3.806   4.111   4.198
 50 A'   51 A'   26 A"   52 A'                                                 
 
 Beta MOs, Restricted
 -- Occupied --                  
-19.263 -19.206  -1.159  -1.101  -0.676  -0.626  -0.536  -0.478
  1 A'    2 A'    3 A'    4 A'    1 A"    5 A'    6 A'    7 A'                 
 -0.455  -0.404
  8 A'    2 A"                                                                 
 -- Virtual --                   
  0.061   0.109   0.121   0.149   0.174   0.192   0.210   0.230
  9 A'   10 A'    3 A"   11 A'   12 A'    4 A"   13 A'   14 A'                 
  0.239   0.268   0.288   0.291   0.315   0.335   0.359   0.392
  5 A"   15 A'    6 A"   16 A'   17 A'   18 A'    7 A"   19 A'                 
  0.419   0.437   0.448   0.448   0.484   0.490   0.500   0.605
  8 A"   20 A'   21 A'    9 A"   10 A"   22 A'   23 A'   24 A'                 
  0.610   0.641   0.678   0.684   0.684   0.724   0.748   0.759
 11 A"   25 A'   26 A'   27 A'   12 A"   13 A"   28 A'   14 A"                 
  0.779   0.864   1.041   1.067   1.107   1.176   1.314   1.435
 29 A'   30 A'   31 A'   32 A'   15 A"   33 A'   34 A'   35 A'                 
  1.437   1.617   1.617   1.668   1.737   1.796   1.845   1.864
 16 A"   36 A'   17 A"   37 A'   38 A'   18 A"   19 A"   39 A'                 
  1.972   2.024   2.059   2.062   2.121   2.167   2.335   2.451
 40 A'   20 A"   41 A'   21 A"   42 A'   43 A'   22 A"   44 A'                 
  2.477   2.604   3.120   3.127   3.140   3.206   3.292   3.339
 45 A'   46 A'   47 A'   23 A"   24 A"   25 A"   48 A'   49 A'                 
  3.726   3.806   4.111   4.198
 50 A'   51 A'   26 A"   52 A'                                                 
 --------------------------------------------------------------
 
          Ground-State Mulliken Net Atomic Charges

     Atom                 Charge (a.u.)
  ----------------------------------------
      1 O                    -0.292420
      2 H                     0.128573
      3 H                     0.136114
      4 O                    -0.293562
      5 H                     0.160648
      6 H                     0.160648
  ----------------------------------------
  Sum of atomic charges =     0.000000

 -----------------------------------------------------------------
                    Cartesian Multipole Moments
 -----------------------------------------------------------------
    Charge (ESU x 10^10)
                 0.0000
    Dipole Moment (Debye)
         X       2.7600      Y      -0.2191      Z       0.0000
       Tot       2.7687
    Quadrupole Moments (Debye-Ang)
        XX     -11.1513     XY       6.1616     YY     -13.2425
        XZ      -0.0000     YZ      -0.0000     ZZ     -12.2378
    Octopole Moments (Debye-Ang^2)
       XXX       9.2748    XXY      -1.4207    XYY      -1.0424
       YYY      -0.7097    XXZ      -0.0000    XYZ       0.0000
       YYZ      -0.0000    XZZ       6.4307    YZZ       0.7611
       ZZZ      -0.0000
    Hexadecapole Moments (Debye-Ang^3)
      XXXX    -170.9563   XXXY      24.5319   XXYY     -31.4315
      XYYY       4.7780   YYYY     -15.8012   XXXZ      -0.0000
      XXYZ      -0.0000   XYYZ      -0.0000   YYYZ      -0.0000
      XXZZ     -29.0580   XYZZ       2.4544   YYZZ      -5.2092
      XZZZ      -0.0000   YZZZ      -0.0000   ZZZZ     -14.7214
 -----------------------------------------------------------------
 Calculating analytic gradient of the SCF energy
 Gradient of SCF Energy
            1           2           3           4           5           6
    1  -0.0000584  -0.0000108   0.0002772  -0.0003115   0.0000518   0.0000518
    2   0.0000650  -0.0000032  -0.0001299   0.0001042  -0.0000180  -0.0000180
    3   0.0000000  -0.0000000  -0.0000000  -0.0000000   0.0000190  -0.0000190
 Max gradient component =       3.115E-04
 RMS gradient           =       1.096E-04
 Gradient time:  CPU 12.71 s  wall 0.80 s
 Geometry Optimization Parameters
   NAtoms,    NIC,     NZ,  NCons,   NDum,   NFix, NCnnct, MaxDiis
        6      25       0       0       0       0       0       0

 Cartesian Hessian Update
 Hessian updated using BFGS update


** GEOMETRY OPTIMIZATION IN DELOCALIZED INTERNAL COORDINATES **
   Searching for a Minimum

   Optimization Cycle:   2

                       Coordinates (Angstroms)
     ATOM                X               Y               Z
      1  O        -1.5128132269    0.1212033365    0.0000000000
      2  H        -1.9252402721   -0.7474157654    0.0000000000
      3  H        -0.5568371443   -0.0450153818    0.0000000000
      4  O         1.3828196323   -0.1063205849    0.0000000000
      5  H         1.7624072610    0.3349154537   -0.7676372473
      6  H         1.7624072610    0.3349154537    0.7676372473
   Point Group: cs    Number of degrees of freedom:     8


   Energy is   -152.707194961

 Hessian updated using BFGS update

  8 Hessian modes will be used to form the next step
  Hessian Eigenvalues:
     0.011731    0.072552    0.153980    0.168800    0.197770    0.546667
     0.550733    0.656401

 Minimum search - taking simple RFO step
 Searching for Lamda that Minimizes Along All modes
 Value Taken    Lamda =  -0.00000482
 Step Taken.  Stepsize is  0.020093

                             Maximum     Tolerance    Cnvgd?
         Gradient           0.000200      0.000050      NO
         Displacement       0.012452      0.000050      NO
         Energy change     -0.000002      0.000000      NO


 New Cartesian Coordinates Obtained by Inverse Iteration

 Displacement from previous Coordinates is:  0.020454
 ----------------------------------------------------------------
             Standard Nuclear Orientation (Angstroms)
    I     Atom           X                Y                Z
 ----------------------------------------------------------------
    1      O      -1.5172014314     0.1207172231     0.0000000000
    2      H      -1.9292232886    -0.7480232991     0.0000000000
    3      H      -0.5612609042    -0.0450668851     0.0000000000
    4      O       1.3886524488    -0.1073845771     0.0000000000
    5      H       1.7658883433     0.3360200250    -0.7675224490
    6      H       1.7658883433     0.3360200250     0.7675224490
 ----------------------------------------------------------------
 Molecular Point Group                 Cs    NOp =  2
 Largest Abelian Subgroup              Cs    NOp =  2
 Nuclear Repulsion Energy =          36.48860157 hartrees
 There are       10 alpha and       10 beta electrons
 Applying Cartesian multipole field
    Component          Value
    ---------          -----
     (2,0,0)        1.00000E-11
     (0,2,0)        2.00000E-11
     (0,0,2)       -3.00000E-11
 Nucleus-field energy     =     0.0000000015 hartrees
 Requested basis set is def2-SVPD
 There are 34 shells and 78 basis functions
 A cutoff of  1.0D-14 yielded    594 shell pairs
 There are      3162 function pairs (      3504 Cartesian)
 Smallest overlap matrix eigenvalue = 1.56E-03
 Attempting to make child job directory: /data/scratch/water_dimer_vfb_backward20240611233610//Frg1/
 Failed to make child job directory:     /data/scratch/water_dimer_vfb_backward20240611233610//Frg1/
 Attempting to make child job directory: /data/scratch/water_dimer_vfb_backward20240611233610//Frg2/
 Failed to make child job directory:     /data/scratch/water_dimer_vfb_backward20240611233610//Frg2/
 Creating input file /data/scratch/water_dimer_vfb_backward20240611233610/Frg1.input
 using default PutDataFrgm: nothing
 calling putenv with: QCSCRATCH=/data/scratch/water_dimer_vfb_backward20240611233610/ 
 Spawning Job For Fragment 0
 Done Job For Fragment 0
 calling putenv with: QCSCRATCH=/data/scratch 
 calling putenv with: QCTHREADS=16 
 Creating input file /data/scratch/water_dimer_vfb_backward20240611233610/Frg2.input
 using default PutDataFrgm: nothing
 calling putenv with: QCSCRATCH=/data/scratch/water_dimer_vfb_backward20240611233610/ 
 Spawning Job For Fragment 1
 Done Job For Fragment 1
 calling putenv with: QCSCRATCH=/data/scratch 
 calling putenv with: QCTHREADS=16 
 Time for running child jobs:  CPU 2.44 s  wall 4.53 s

 -----------------------------------------------------------------------
  General SCF calculation program by
  Eric Jon Sundstrom, Paul Horn, Yuezhi Mao, Dmitri Zuev, Alec White,
  David Stuck, Shaama M.S., Shane Yost, Joonho Lee, David Small,
  Daniel Levine, Susi Lehtola, Hugh Burton, Evgeny Epifanovsky,
  Bang C. Huynh
 -----------------------------------------------------------------------
Performing Restricted Closed Shell SCFMI
Doing General SCFMI
 Exchange:     0.1670 Hartree-Fock + 1.0000 wB97X-V + LR-HF
 Correlation:  1.0000 wB97X-V
 Using Euler-Maclaurin-Lebedev (75,302) quadrature formula
 Nonlocal Correlation:  VV10 with C = 0.0100 and b = 6.00 and scale = 1.00000
 Grid used for NLC:  SG-1 standard quadrature
performing fock build before subrot guess so that all methods have access
Printing subrot_rss_gen Method Specification:
Occupied Subspace Method is 0
Virtual Subspace Method is 0
Energy prior to optimization (guess energy) = -152.702434168000
Begin Timing: Total SCF Calculation
begin iterations for algorithm: DIIS         
the SCF tolerance is set to 1.00e-09
    1    -152.7024341680      7.56e-04     00000 
    2    -152.7041120214      2.15e-04     00000 
    3    -152.7042390584      8.80e-05     00000 
    4    -152.7042549262      5.24e-05     00000 
    5    -152.7042591014      1.97e-05     00000 
    6    -152.7042600755      3.92e-06     00000 
    7    -152.7042601098      8.79e-07     00000 
    8    -152.7042601114      5.51e-07     00000 
    9    -152.7042601119      1.54e-07     00000 
   10    -152.7042601119      4.23e-08     00000 
   11    -152.7042601119      9.92e-09     00000 
   12    -152.7042601119      2.31e-09     00000 
   13    -152.7042601119      5.86e-10     00000 Convergence criterion met
write pseudocanon occs and virts to disk
write pseudocanon orbital energies to disk
Timing for Total SCF: 4.00s (wall), 57.48s (cpu)
SCFMI Energy    -152.7042601119
<S^2>            0.00000
====================================================================
           Variational forward-backward (VFB) CT analysis           
 M. Loipersberger, Y. Mao and M. Head-Gordon, JCTC, 16, 1073 (2020) 
====================================================================
Calculating stabilization due to the backward (2->1) CT
Requested donor fragment: 2
updated OccSS dimension
        5
        5
updated VirtSS dimension
        34
        68
Energy prior to optimization (guess energy) = -152.704260111931
Begin Timing: Total SCF Calculation
begin iterations for algorithm: DIIS         
the SCF tolerance is set to 1.00e-09
    1    -152.7042601119      7.74e-04     00000 
    2    -152.7070708461      1.38e-04     00000 
    3    -152.7071831382      7.42e-05     00000 
    4    -152.7071961468      2.17e-05     00000 
    5    -152.7071976692      1.85e-06     00000 
    6    -152.7071976898      5.38e-07     00000 
    7    -152.7071976912      2.74e-07     00000 
    8    -152.7071976915      8.73e-08     00000 
    9    -152.7071976915      2.33e-08     00000 
   10    -152.7071976915      5.70e-09     00000 
   11    -152.7071976915      8.99e-10     00000 Convergence criterion met
write pseudocanon occs and virts to disk
write pseudocanon orbital energies to disk
Timing for Total SCF: 3.00s (wall), 48.25s (cpu)
Energy of the one-side CT state:     -152.7071976915
Stabilization due to one-side CT:    -7.7127 kJ/mol
<S^2>            0.00000
 Total energy in the final basis set =     -152.7071976915
    ==================================================
        The end of Object-Oriented SCFman: SCFMI      
    ==================================================
 
 --------------------------------------------------------------
             Orbital Energies (a.u.) and Symmetries
 --------------------------------------------------------------
 
 Alpha MOs, Restricted
 -- Occupied --                  
-19.263 -19.206  -1.159  -1.101  -0.676  -0.626  -0.535  -0.478
  1 A'    2 A'    3 A'    4 A'    1 A"    5 A'    6 A'    7 A'                 
 -0.455  -0.405
  8 A'    2 A"                                                                 
 -- Virtual --                   
  0.061   0.109   0.122   0.149   0.174   0.192   0.210   0.230
  9 A'   10 A'    3 A"   11 A'   12 A'    4 A"   13 A'   14 A'                 
  0.239   0.268   0.288   0.291   0.315   0.334   0.359   0.391
  5 A"   15 A'    6 A"   16 A'   17 A'   18 A'    7 A"   19 A'                 
  0.419   0.436   0.448   0.448   0.484   0.490   0.499   0.606
  8 A"   20 A'   21 A'    9 A"   10 A"   22 A'   23 A'   24 A'                 
  0.610   0.641   0.678   0.684   0.684   0.724   0.748   0.758
 11 A"   25 A'   26 A'   27 A'   12 A"   13 A"   28 A'   14 A"                 
  0.778   0.862   1.041   1.067   1.107   1.176   1.313   1.434
 29 A'   30 A'   31 A'   32 A'   15 A"   33 A'   34 A'   35 A'                 
  1.436   1.616   1.617   1.667   1.737   1.796   1.844   1.864
 16 A"   36 A'   17 A"   37 A'   38 A'   18 A"   19 A"   39 A'                 
  1.973   2.024   2.059   2.060   2.120   2.167   2.336   2.449
 40 A'   20 A"   41 A'   21 A"   42 A'   43 A'   22 A"   44 A'                 
  2.477   2.599   3.122   3.127   3.141   3.206   3.292   3.338
 45 A'   46 A'   47 A'   23 A"   24 A"   25 A"   48 A'   49 A'                 
  3.726   3.805   4.111   4.197
 50 A'   51 A'   26 A"   52 A'                                                 
 
 Beta MOs, Restricted
 -- Occupied --                  
-19.263 -19.206  -1.159  -1.101  -0.676  -0.626  -0.535  -0.478
  1 A'    2 A'    3 A'    4 A'    1 A"    5 A'    6 A'    7 A'                 
 -0.455  -0.405
  8 A'    2 A"                                                                 
 -- Virtual --                   
  0.061   0.109   0.122   0.149   0.174   0.192   0.210   0.230
  9 A'   10 A'    3 A"   11 A'   12 A'    4 A"   13 A'   14 A'                 
  0.239   0.268   0.288   0.291   0.315   0.334   0.359   0.391
  5 A"   15 A'    6 A"   16 A'   17 A'   18 A'    7 A"   19 A'                 
  0.419   0.436   0.448   0.448   0.484   0.490   0.499   0.606
  8 A"   20 A'   21 A'    9 A"   10 A"   22 A'   23 A'   24 A'                 
  0.610   0.641   0.678   0.684   0.684   0.724   0.748   0.758
 11 A"   25 A'   26 A'   27 A'   12 A"   13 A"   28 A'   14 A"                 
  0.778   0.862   1.041   1.067   1.107   1.176   1.313   1.434
 29 A'   30 A'   31 A'   32 A'   15 A"   33 A'   34 A'   35 A'                 
  1.436   1.616   1.617   1.667   1.737   1.796   1.844   1.864
 16 A"   36 A'   17 A"   37 A'   38 A'   18 A"   19 A"   39 A'                 
  1.973   2.024   2.059   2.060   2.120   2.167   2.336   2.449
 40 A'   20 A"   41 A'   21 A"   42 A'   43 A'   22 A"   44 A'                 
  2.477   2.599   3.122   3.127   3.141   3.206   3.292   3.338
 45 A'   46 A'   47 A'   23 A"   24 A"   25 A"   48 A'   49 A'                 
  3.726   3.805   4.111   4.197
 50 A'   51 A'   26 A"   52 A'                                                 
 --------------------------------------------------------------
 
          Ground-State Mulliken Net Atomic Charges

     Atom                 Charge (a.u.)
  ----------------------------------------
      1 O                    -0.291685
      2 H                     0.128585
      3 H                     0.135575
      4 O                    -0.293975
      5 H                     0.160750
      6 H                     0.160750
  ----------------------------------------
  Sum of atomic charges =     0.000000

 -----------------------------------------------------------------
                    Cartesian Multipole Moments
 -----------------------------------------------------------------
    Charge (ESU x 10^10)
                 0.0000
    Dipole Moment (Debye)
         X       2.7443      Y      -0.2124      Z       0.0000
       Tot       2.7525
    Quadrupole Moments (Debye-Ang)
        XX     -11.1728     XY       6.1845     YY     -13.2354
        XZ       0.0000     YZ       0.0000     ZZ     -12.2390
    Octopole Moments (Debye-Ang^2)
       XXX       9.2068    XXY      -1.4021    XYY      -1.0576
       YYY      -0.6846    XXZ       0.0000    XYZ       0.0000
       YYZ      -0.0000    XZZ       6.4273    YZZ       0.7718
       ZZZ      -0.0000
    Hexadecapole Moments (Debye-Ang^3)
      XXXX    -172.1523   XXXY      24.7220   XXYY     -31.5969
      XYYY       4.8068   YYYY     -15.8025   XXXZ       0.0000
      XXYZ       0.0000   XYYZ       0.0000   YYYZ       0.0000
      XXZZ     -29.2374   XYZZ       2.4657   YYZZ      -5.2072
      XZZZ      -0.0000   YZZZ      -0.0000   ZZZZ     -14.7200
 -----------------------------------------------------------------
 Calculating analytic gradient of the SCF energy
 Gradient of SCF Energy
            1           2           3           4           5           6
    1  -0.0001920  -0.0000041   0.0001967  -0.0000822   0.0000408   0.0000408
    2  -0.0000372   0.0000772  -0.0000894   0.0000873  -0.0000190  -0.0000190
    3   0.0000000   0.0000000  -0.0000000  -0.0000000   0.0000407  -0.0000407
 Max gradient component =       1.967E-04
 RMS gradient           =       7.911E-05
 Gradient time:  CPU 12.70 s  wall 0.79 s
 Geometry Optimization Parameters
   NAtoms,    NIC,     NZ,  NCons,   NDum,   NFix, NCnnct, MaxDiis
        6      25       0       0       0       0       0       0

 Cartesian Hessian Update
 Hessian updated using BFGS update


** GEOMETRY OPTIMIZATION IN DELOCALIZED INTERNAL COORDINATES **
   Searching for a Minimum

   Optimization Cycle:   3

                       Coordinates (Angstroms)
     ATOM                X               Y               Z
      1  O        -1.5172014314    0.1207172231    0.0000000000
      2  H        -1.9292232886   -0.7480232991    0.0000000000
      3  H        -0.5612609042   -0.0450668851    0.0000000000
      4  O         1.3886524488   -0.1073845771    0.0000000000
      5  H         1.7658883433    0.3360200250   -0.7675224490
      6  H         1.7658883433    0.3360200250    0.7675224490
   Point Group: cs    Number of degrees of freedom:     8


   Energy is   -152.707197692

 Hessian updated using BFGS update

  8 Hessian modes will be used to form the next step
  Hessian Eigenvalues:
     0.010143    0.072483    0.152532    0.169075    0.197352    0.546638
     0.551276    0.660076

 Minimum search - taking simple RFO step
 Searching for Lamda that Minimizes Along All modes
 Value Taken    Lamda =  -0.00000034
 Step Taken.  Stepsize is  0.003890

                             Maximum     Tolerance    Cnvgd?
         Gradient           0.000169      0.000050      NO
         Displacement       0.002583      0.000050      NO
         Energy change     -0.000003      0.000000      NO


 New Cartesian Coordinates Obtained by Inverse Iteration

 Displacement from previous Coordinates is:  0.002932
 ----------------------------------------------------------------
             Standard Nuclear Orientation (Angstroms)
    I     Atom           X                Y                Z
 ----------------------------------------------------------------
    1      O      -1.5177267053     0.1207900369     0.0000000000
    2      H      -1.9294617893    -0.7481476864     0.0000000000
    3      H      -0.5619616936    -0.0449640863     0.0000000000
    4      O       1.3897043574    -0.1078907206     0.0000000000
    5      H       1.7660946709     0.3362474841    -0.7675324410
    6      H       1.7660946709     0.3362474841     0.7675324410
 ----------------------------------------------------------------
 Molecular Point Group                 Cs    NOp =  2
 Largest Abelian Subgroup              Cs    NOp =  2
 Nuclear Repulsion Energy =          36.47949689 hartrees
 There are       10 alpha and       10 beta electrons
 Applying Cartesian multipole field
    Component          Value
    ---------          -----
     (2,0,0)        1.00000E-11
     (0,2,0)        2.00000E-11
     (0,0,2)       -3.00000E-11
 Nucleus-field energy     =     0.0000000015 hartrees
 Requested basis set is def2-SVPD
 There are 34 shells and 78 basis functions
 A cutoff of  1.0D-14 yielded    594 shell pairs
 There are      3162 function pairs (      3504 Cartesian)
 Smallest overlap matrix eigenvalue = 1.56E-03
 Attempting to make child job directory: /data/scratch/water_dimer_vfb_backward20240611233610//Frg1/
 Failed to make child job directory:     /data/scratch/water_dimer_vfb_backward20240611233610//Frg1/
 Attempting to make child job directory: /data/scratch/water_dimer_vfb_backward20240611233610//Frg2/
 Failed to make child job directory:     /data/scratch/water_dimer_vfb_backward20240611233610//Frg2/
 Creating input file /data/scratch/water_dimer_vfb_backward20240611233610/Frg1.input
 using default PutDataFrgm: nothing
 calling putenv with: QCSCRATCH=/data/scratch/water_dimer_vfb_backward20240611233610/ 
 Spawning Job For Fragment 0
 Done Job For Fragment 0
 calling putenv with: QCSCRATCH=/data/scratch 
 calling putenv with: QCTHREADS=16 
 Creating input file /data/scratch/water_dimer_vfb_backward20240611233610/Frg2.input
 using default PutDataFrgm: nothing
 calling putenv with: QCSCRATCH=/data/scratch/water_dimer_vfb_backward20240611233610/ 
 Spawning Job For Fragment 1
 Done Job For Fragment 1
 calling putenv with: QCSCRATCH=/data/scratch 
 calling putenv with: QCTHREADS=16 
 Time for running child jobs:  CPU 2.70 s  wall 4.62 s

 -----------------------------------------------------------------------
  General SCF calculation program by
  Eric Jon Sundstrom, Paul Horn, Yuezhi Mao, Dmitri Zuev, Alec White,
  David Stuck, Shaama M.S., Shane Yost, Joonho Lee, David Small,
  Daniel Levine, Susi Lehtola, Hugh Burton, Evgeny Epifanovsky,
  Bang C. Huynh
 -----------------------------------------------------------------------
Performing Restricted Closed Shell SCFMI
Doing General SCFMI
 Exchange:     0.1670 Hartree-Fock + 1.0000 wB97X-V + LR-HF
 Correlation:  1.0000 wB97X-V
 Using Euler-Maclaurin-Lebedev (75,302) quadrature formula
 Nonlocal Correlation:  VV10 with C = 0.0100 and b = 6.00 and scale = 1.00000
 Grid used for NLC:  SG-1 standard quadrature
performing fock build before subrot guess so that all methods have access
Printing subrot_rss_gen Method Specification:
Occupied Subspace Method is 0
Virtual Subspace Method is 0
Energy prior to optimization (guess energy) = -152.702456623983
Begin Timing: Total SCF Calculation
begin iterations for algorithm: DIIS         
the SCF tolerance is set to 1.00e-09
    1    -152.7024566240      7.54e-04     00000 
    2    -152.7041254247      2.15e-04     00000 
    3    -152.7042517509      8.76e-05     00000 
    4    -152.7042674906      5.21e-05     00000 
    5    -152.7042716157      1.96e-05     00000 
    6    -152.7042725791      3.90e-06     00000 
    7    -152.7042726130      8.67e-07     00000 
    8    -152.7042726145      5.38e-07     00000 
    9    -152.7042726149      1.53e-07     00000 
   10    -152.7042726150      4.20e-08     00000 
   11    -152.7042726150      9.81e-09     00000 
   12    -152.7042726150      2.29e-09     00000 
   13    -152.7042726150      5.80e-10     00000 Convergence criterion met
write pseudocanon occs and virts to disk
write pseudocanon orbital energies to disk
Timing for Total SCF: 4.00s (wall), 57.30s (cpu)
SCFMI Energy    -152.7042726150
<S^2>            0.00000
====================================================================
           Variational forward-backward (VFB) CT analysis           
 M. Loipersberger, Y. Mao and M. Head-Gordon, JCTC, 16, 1073 (2020) 
====================================================================
Calculating stabilization due to the backward (2->1) CT
Requested donor fragment: 2
updated OccSS dimension
        5
        5
updated VirtSS dimension
        34
        68
Energy prior to optimization (guess energy) = -152.704272615024
Begin Timing: Total SCF Calculation
begin iterations for algorithm: DIIS         
the SCF tolerance is set to 1.00e-09
    1    -152.7042726150      7.72e-04     00000 
    2    -152.7070716209      1.38e-04     00000 
    3    -152.7071834872      7.39e-05     00000 
    4    -152.7071963999      2.16e-05     00000 
    5    -152.7071979148      1.84e-06     00000 
    6    -152.7071979354      5.36e-07     00000 
    7    -152.7071979367      2.73e-07     00000 
    8    -152.7071979370      8.72e-08     00000 
    9    -152.7071979371      2.33e-08     00000 
   10    -152.7071979371      5.67e-09     00000 
   11    -152.7071979371      8.94e-10     00000 Convergence criterion met
write pseudocanon occs and virts to disk
write pseudocanon orbital energies to disk
Timing for Total SCF: 3.00s (wall), 48.17s (cpu)
Energy of the one-side CT state:     -152.7071979371
Stabilization due to one-side CT:    -7.6805 kJ/mol
<S^2>            0.00000
 Total energy in the final basis set =     -152.7071979371
    ==================================================
        The end of Object-Oriented SCFman: SCFMI      
    ==================================================
 
 --------------------------------------------------------------
             Orbital Energies (a.u.) and Symmetries
 --------------------------------------------------------------
 
 Alpha MOs, Restricted
 -- Occupied --                  
-19.263 -19.206  -1.159  -1.101  -0.676  -0.626  -0.535  -0.478
  1 A'    2 A'    3 A'    4 A'    1 A"    5 A'    6 A'    7 A'                 
 -0.455  -0.405
  8 A'    2 A"                                                                 
 -- Virtual --                   
  0.061   0.109   0.122   0.149   0.174   0.192   0.210   0.230
  9 A'   10 A'    3 A"   11 A'   12 A'    4 A"   13 A'   14 A'                 
  0.239   0.268   0.288   0.291   0.314   0.334   0.359   0.391
  5 A"   15 A'    6 A"   16 A'   17 A'   18 A'    7 A"   19 A'                 
  0.419   0.436   0.448   0.448   0.484   0.490   0.499   0.606
  8 A"   20 A'   21 A'    9 A"   10 A"   22 A'   23 A'   24 A'                 
  0.610   0.641   0.678   0.684   0.684   0.724   0.748   0.758
 11 A"   25 A'   26 A'   27 A'   12 A"   13 A"   28 A'   14 A"                 
  0.778   0.862   1.041   1.067   1.107   1.176   1.313   1.433
 29 A'   30 A'   31 A'   32 A'   15 A"   33 A'   34 A'   35 A'                 
  1.435   1.616   1.617   1.667   1.737   1.795   1.844   1.864
 16 A"   36 A'   17 A"   37 A'   38 A'   18 A"   19 A"   39 A'                 
  1.973   2.024   2.059   2.059   2.120   2.166   2.336   2.449
 40 A'   20 A"   41 A'   21 A"   42 A'   43 A'   22 A"   44 A'                 
  2.477   2.598   3.122   3.127   3.141   3.206   3.292   3.338
 45 A'   46 A'   47 A'   23 A"   24 A"   25 A"   48 A'   49 A'                 
  3.726   3.805   4.111   4.197
 50 A'   51 A'   26 A"   52 A'                                                 
 
 Beta MOs, Restricted
 -- Occupied --                  
-19.263 -19.206  -1.159  -1.101  -0.676  -0.626  -0.535  -0.478
  1 A'    2 A'    3 A'    4 A'    1 A"    5 A'    6 A'    7 A'                 
 -0.455  -0.405
  8 A'    2 A"                                                                 
 -- Virtual --                   
  0.061   0.109   0.122   0.149   0.174   0.192   0.210   0.230
  9 A'   10 A'    3 A"   11 A'   12 A'    4 A"   13 A'   14 A'                 
  0.239   0.268   0.288   0.291   0.314   0.334   0.359   0.391
  5 A"   15 A'    6 A"   16 A'   17 A'   18 A'    7 A"   19 A'                 
  0.419   0.436   0.448   0.448   0.484   0.490   0.499   0.606
  8 A"   20 A'   21 A'    9 A"   10 A"   22 A'   23 A'   24 A'                 
  0.610   0.641   0.678   0.684   0.684   0.724   0.748   0.758
 11 A"   25 A'   26 A'   27 A'   12 A"   13 A"   28 A'   14 A"                 
  0.778   0.862   1.041   1.067   1.107   1.176   1.313   1.433
 29 A'   30 A'   31 A'   32 A'   15 A"   33 A'   34 A'   35 A'                 
  1.435   1.616   1.617   1.667   1.737   1.795   1.844   1.864
 16 A"   36 A'   17 A"   37 A'   38 A'   18 A"   19 A"   39 A'                 
  1.973   2.024   2.059   2.059   2.120   2.166   2.336   2.449
 40 A'   20 A"   41 A'   21 A"   42 A'   43 A'   22 A"   44 A'                 
  2.477   2.598   3.122   3.127   3.141   3.206   3.292   3.338
 45 A'   46 A'   47 A'   23 A"   24 A"   25 A"   48 A'   49 A'                 
  3.726   3.805   4.111   4.197
 50 A'   51 A'   26 A"   52 A'                                                 
 --------------------------------------------------------------
 
          Ground-State Mulliken Net Atomic Charges

     Atom                 Charge (a.u.)
  ----------------------------------------
      1 O                    -0.291401
      2 H                     0.128644
      3 H                     0.135306
      4 O                    -0.294257
      5 H                     0.160854
      6 H                     0.160854
  ----------------------------------------
  Sum of atomic charges =     0.000000

 -----------------------------------------------------------------
                    Cartesian Multipole Moments
 -----------------------------------------------------------------
    Charge (ESU x 10^10)
                -0.0000
    Dipole Moment (Debye)
         X       2.7401      Y      -0.2104      Z       0.0000
       Tot       2.7482
    Quadrupole Moments (Debye-Ang)
        XX     -11.1831     XY       6.1894     YY     -13.2335
        XZ       0.0000     YZ       0.0000     ZZ     -12.2389
    Octopole Moments (Debye-Ang^2)
       XXX       9.1777    XXY      -1.3955    XYY      -1.0615
       YYY      -0.6774    XXZ       0.0000    XYZ       0.0000
       YYZ      -0.0000    XZZ       6.4241    YZZ       0.7745
       ZZZ      -0.0000
    Hexadecapole Moments (Debye-Ang^3)
      XXXX    -172.3805   XXXY      24.7586   XXYY     -31.6218
      XYYY       4.8245   YYYY     -15.8050   XXXZ       0.0000
      XXYZ       0.0000   XYYZ      -0.0000   YYYZ      -0.0000
      XXZZ     -29.2652   XYZZ       2.4717   YYZZ      -5.2071
      XZZZ      -0.0000   YZZZ      -0.0000   ZZZZ     -14.7195
 -----------------------------------------------------------------
 Calculating analytic gradient of the SCF energy
 Gradient of SCF Energy
            1           2           3           4           5           6
    1  -0.0000436  -0.0000027   0.0000171  -0.0000516   0.0000404   0.0000404
    2   0.0000115   0.0000232  -0.0000791   0.0000717  -0.0000137  -0.0000137
    3   0.0000000  -0.0000000  -0.0000000   0.0000000   0.0000246  -0.0000246
 Max gradient component =       7.913E-05
 RMS gradient           =       3.479E-05
 Gradient time:  CPU 12.61 s  wall 0.79 s
 Geometry Optimization Parameters
   NAtoms,    NIC,     NZ,  NCons,   NDum,   NFix, NCnnct, MaxDiis
        6      25       0       0       0       0       0       0

 Cartesian Hessian Update
 Hessian updated using BFGS update


** GEOMETRY OPTIMIZATION IN DELOCALIZED INTERNAL COORDINATES **
   Searching for a Minimum

   Optimization Cycle:   4

                       Coordinates (Angstroms)
     ATOM                X               Y               Z
      1  O        -1.5177267053    0.1207900369    0.0000000000
      2  H        -1.9294617893   -0.7481476864    0.0000000000
      3  H        -0.5619616936   -0.0449640863    0.0000000000
      4  O         1.3897043574   -0.1078907206    0.0000000000
      5  H         1.7660946709    0.3362474841   -0.7675324410
      6  H         1.7660946709    0.3362474841    0.7675324410
   Point Group: cs    Number of degrees of freedom:     8


   Energy is   -152.707197937

 Hessian updated using BFGS update

  8 Hessian modes will be used to form the next step
  Hessian Eigenvalues:
     0.009515    0.058289    0.115589    0.168065    0.195235    0.546820
     0.551172    0.659081

 Minimum search - taking simple RFO step
 Searching for Lamda that Minimizes Along All modes
 Value Taken    Lamda =  -0.00000030
 Step Taken.  Stepsize is  0.003464

                             Maximum     Tolerance    Cnvgd?
         Gradient           0.000093      0.000050      NO
         Displacement       0.002578      0.000050      NO
         Energy change     -0.000000      0.000000      NO


 New Cartesian Coordinates Obtained by Inverse Iteration

 Displacement from previous Coordinates is:  0.002673
 ----------------------------------------------------------------
             Standard Nuclear Orientation (Angstroms)
    I     Atom           X                Y                Z
 ----------------------------------------------------------------
    1      O      -1.5177177268     0.1209636882     0.0000000000
    2      H      -1.9292083999    -0.7481501130     0.0000000000
    3      H      -0.5621105975    -0.0448251563     0.0000000000
    4      O       1.3905040035    -0.1087132971     0.0000000000
    5      H       1.7656381159     0.3365036950    -0.7675459208
    6      H       1.7656381159     0.3365036950     0.7675459208
 ----------------------------------------------------------------
 Molecular Point Group                 Cs    NOp =  2
 Largest Abelian Subgroup              Cs    NOp =  2
 Nuclear Repulsion Energy =          36.47554822 hartrees
 There are       10 alpha and       10 beta electrons
 Applying Cartesian multipole field
    Component          Value
    ---------          -----
     (2,0,0)        1.00000E-11
     (0,2,0)        2.00000E-11
     (0,0,2)       -3.00000E-11
 Nucleus-field energy     =     0.0000000015 hartrees
 Requested basis set is def2-SVPD
 There are 34 shells and 78 basis functions
 A cutoff of  1.0D-14 yielded    594 shell pairs
 There are      3162 function pairs (      3504 Cartesian)
 Smallest overlap matrix eigenvalue = 1.56E-03
 Attempting to make child job directory: /data/scratch/water_dimer_vfb_backward20240611233610//Frg1/
 Failed to make child job directory:     /data/scratch/water_dimer_vfb_backward20240611233610//Frg1/
 Attempting to make child job directory: /data/scratch/water_dimer_vfb_backward20240611233610//Frg2/
 Failed to make child job directory:     /data/scratch/water_dimer_vfb_backward20240611233610//Frg2/
 Creating input file /data/scratch/water_dimer_vfb_backward20240611233610/Frg1.input
 using default PutDataFrgm: nothing
 calling putenv with: QCSCRATCH=/data/scratch/water_dimer_vfb_backward20240611233610/ 
 Spawning Job For Fragment 0
 Done Job For Fragment 0
 calling putenv with: QCSCRATCH=/data/scratch 
 calling putenv with: QCTHREADS=16 
 Creating input file /data/scratch/water_dimer_vfb_backward20240611233610/Frg2.input
 using default PutDataFrgm: nothing
 calling putenv with: QCSCRATCH=/data/scratch/water_dimer_vfb_backward20240611233610/ 
 Spawning Job For Fragment 1
 Done Job For Fragment 1
 calling putenv with: QCSCRATCH=/data/scratch 
 calling putenv with: QCTHREADS=16 
 Time for running child jobs:  CPU 2.86 s  wall 4.66 s

 -----------------------------------------------------------------------
  General SCF calculation program by
  Eric Jon Sundstrom, Paul Horn, Yuezhi Mao, Dmitri Zuev, Alec White,
  David Stuck, Shaama M.S., Shane Yost, Joonho Lee, David Small,
  Daniel Levine, Susi Lehtola, Hugh Burton, Evgeny Epifanovsky,
  Bang C. Huynh
 -----------------------------------------------------------------------
Performing Restricted Closed Shell SCFMI
Doing General SCFMI
 Exchange:     0.1670 Hartree-Fock + 1.0000 wB97X-V + LR-HF
 Correlation:  1.0000 wB97X-V
 Using Euler-Maclaurin-Lebedev (75,302) quadrature formula
 Nonlocal Correlation:  VV10 with C = 0.0100 and b = 6.00 and scale = 1.00000
 Grid used for NLC:  SG-1 standard quadrature
performing fock build before subrot guess so that all methods have access
Printing subrot_rss_gen Method Specification:
Occupied Subspace Method is 0
Virtual Subspace Method is 0
Energy prior to optimization (guess energy) = -152.702468603846
Begin Timing: Total SCF Calculation
begin iterations for algorithm: DIIS         
the SCF tolerance is set to 1.00e-09
    1    -152.7024686038      7.53e-04     00000 
    2    -152.7041322426      2.14e-04     00000 
    3    -152.7042581779      8.73e-05     00000 
    4    -152.7042738382      5.19e-05     00000 
    5    -152.7042779269      1.96e-05     00000 
    6    -152.7042788842      3.89e-06     00000 
    7    -152.7042789177      8.69e-07     00000 
    8    -152.7042789193      5.44e-07     00000 
    9    -152.7042789197      1.52e-07     00000 
   10    -152.7042789198      4.17e-08     00000 
   11    -152.7042789198      9.75e-09     00000 
   12    -152.7042789198      2.28e-09     00000 
   13    -152.7042789198      5.76e-10     00000 Convergence criterion met
write pseudocanon occs and virts to disk
write pseudocanon orbital energies to disk
Timing for Total SCF: 4.00s (wall), 57.96s (cpu)
SCFMI Energy    -152.7042789198
<S^2>            0.00000
====================================================================
           Variational forward-backward (VFB) CT analysis           
 M. Loipersberger, Y. Mao and M. Head-Gordon, JCTC, 16, 1073 (2020) 
====================================================================
Calculating stabilization due to the backward (2->1) CT
Requested donor fragment: 2
updated OccSS dimension
        5
        5
updated VirtSS dimension
        34
        68
Energy prior to optimization (guess energy) = -152.704278919769
Begin Timing: Total SCF Calculation
begin iterations for algorithm: DIIS         
the SCF tolerance is set to 1.00e-09
    1    -152.7042789198      7.71e-04     00000 
    2    -152.7070720998      1.38e-04     00000 
    3    -152.7071837624      7.38e-05     00000 
    4    -152.7071966328      2.16e-05     00000 
    5    -152.7071981435      1.84e-06     00000 
    6    -152.7071981640      5.34e-07     00000 
    7    -152.7071981653      2.72e-07     00000 
    8    -152.7071981656      8.73e-08     00000 
    9    -152.7071981657      2.33e-08     00000 
   10    -152.7071981657      5.66e-09     00000 
   11    -152.7071981657      8.92e-10     00000 Convergence criterion met
write pseudocanon occs and virts to disk
write pseudocanon orbital energies to disk
Timing for Total SCF: 3.00s (wall), 48.25s (cpu)
Energy of the one-side CT state:     -152.7071981657
Stabilization due to one-side CT:    -7.6646 kJ/mol
<S^2>            0.00000
 Total energy in the final basis set =     -152.7071981657
    ==================================================
        The end of Object-Oriented SCFman: SCFMI      
    ==================================================
 
 --------------------------------------------------------------
             Orbital Energies (a.u.) and Symmetries
 --------------------------------------------------------------
 
 Alpha MOs, Restricted
 -- Occupied --                  
-19.263 -19.206  -1.159  -1.102  -0.675  -0.626  -0.535  -0.478
  1 A'    2 A'    3 A'    4 A'    1 A"    5 A'    6 A'    7 A'                 
 -0.455  -0.405
  8 A'    2 A"                                                                 
 -- Virtual --                   
  0.062   0.109   0.122   0.149   0.174   0.192   0.210   0.230
  9 A'   10 A'    3 A"   11 A'   12 A'    4 A"   13 A'   14 A'                 
  0.239   0.268   0.288   0.291   0.314   0.334   0.359   0.391
  5 A"   15 A'    6 A"   16 A'   17 A'   18 A'    7 A"   19 A'                 
  0.419   0.436   0.448   0.448   0.484   0.490   0.499   0.606
  8 A"   20 A'   21 A'    9 A"   10 A"   22 A'   23 A'   24 A'                 
  0.610   0.641   0.678   0.684   0.684   0.724   0.747   0.758
 11 A"   25 A'   26 A'   27 A'   12 A"   13 A"   28 A'   14 A"                 
  0.778   0.862   1.042   1.067   1.107   1.176   1.313   1.433
 29 A'   30 A'   31 A'   32 A'   15 A"   33 A'   34 A'   35 A'                 
  1.435   1.616   1.617   1.667   1.737   1.795   1.844   1.863
 16 A"   36 A'   17 A"   37 A'   38 A'   18 A"   19 A"   39 A'                 
  1.973   2.024   2.059   2.059   2.120   2.166   2.335   2.449
 40 A'   20 A"   41 A'   21 A"   42 A'   43 A'   22 A"   44 A'                 
  2.477   2.598   3.122   3.127   3.141   3.206   3.292   3.338
 45 A'   46 A'   47 A'   23 A"   24 A"   25 A"   48 A'   49 A'                 
  3.726   3.804   4.111   4.197
 50 A'   51 A'   26 A"   52 A'                                                 
 
 Beta MOs, Restricted
 -- Occupied --                  
-19.263 -19.206  -1.159  -1.102  -0.675  -0.626  -0.535  -0.478
  1 A'    2 A'    3 A'    4 A'    1 A"    5 A'    6 A'    7 A'                 
 -0.455  -0.405
  8 A'    2 A"                                                                 
 -- Virtual --                   
  0.062   0.109   0.122   0.149   0.174   0.192   0.210   0.230
  9 A'   10 A'    3 A"   11 A'   12 A'    4 A"   13 A'   14 A'                 
  0.239   0.268   0.288   0.291   0.314   0.334   0.359   0.391
  5 A"   15 A'    6 A"   16 A'   17 A'   18 A'    7 A"   19 A'                 
  0.419   0.436   0.448   0.448   0.484   0.490   0.499   0.606
  8 A"   20 A'   21 A'    9 A"   10 A"   22 A'   23 A'   24 A'                 
  0.610   0.641   0.678   0.684   0.684   0.724   0.747   0.758
 11 A"   25 A'   26 A'   27 A'   12 A"   13 A"   28 A'   14 A"                 
  0.778   0.862   1.042   1.067   1.107   1.176   1.313   1.433
 29 A'   30 A'   31 A'   32 A'   15 A"   33 A'   34 A'   35 A'                 
  1.435   1.616   1.617   1.667   1.737   1.795   1.844   1.863
 16 A"   36 A'   17 A"   37 A'   38 A'   18 A"   19 A"   39 A'                 
  1.973   2.024   2.059   2.059   2.120   2.166   2.335   2.449
 40 A'   20 A"   41 A'   21 A"   42 A'   43 A'   22 A"   44 A'                 
  2.477   2.598   3.122   3.127   3.141   3.206   3.292   3.338
 45 A'   46 A'   47 A'   23 A"   24 A"   25 A"   48 A'   49 A'                 
  3.726   3.804   4.111   4.197
 50 A'   51 A'   26 A"   52 A'                                                 
 --------------------------------------------------------------
 
          Ground-State Mulliken Net Atomic Charges

     Atom                 Charge (a.u.)
  ----------------------------------------
      1 O                    -0.291154
      2 H                     0.128701
      3 H                     0.135088
      4 O                    -0.294719
      5 H                     0.161042
      6 H                     0.161042
  ----------------------------------------
  Sum of atomic charges =     0.000000

 -----------------------------------------------------------------
                    Cartesian Multipole Moments
 -----------------------------------------------------------------
    Charge (ESU x 10^10)
                 0.0000
    Dipole Moment (Debye)
         X       2.7351      Y      -0.2075      Z       0.0000
       Tot       2.7430
    Quadrupole Moments (Debye-Ang)
        XX     -11.1982     XY       6.1943     YY     -13.2316
        XZ       0.0000     YZ       0.0000     ZZ     -12.2387
    Octopole Moments (Debye-Ang^2)
       XXX       9.1264    XXY      -1.3855    XYY      -1.0648
       YYY      -0.6662    XXZ       0.0000    XYZ       0.0000
       YYZ      -0.0000    XZZ       6.4177    YZZ       0.7782
       ZZZ      -0.0000
    Hexadecapole Moments (Debye-Ang^3)
      XXXX    -172.5508   XXXY      24.7901   XXYY     -31.6331
      XYYY       4.8522   YYYY     -15.8100   XXXZ       0.0000
      XXYZ       0.0000   XYYZ      -0.0000   YYYZ      -0.0000
      XXZZ     -29.2802   XYZZ       2.4810   YYZZ      -5.2072
      XZZZ       0.0000   YZZZ       0.0000   ZZZZ     -14.7191
 -----------------------------------------------------------------
 Calculating analytic gradient of the SCF energy
 Gradient of SCF Energy
            1           2           3           4           5           6
    1   0.0000939   0.0000008  -0.0001378  -0.0000318   0.0000375   0.0000375
    2   0.0000618  -0.0000309  -0.0000683   0.0000529  -0.0000077  -0.0000077
    3  -0.0000000   0.0000000  -0.0000000   0.0000000   0.0000069  -0.0000069
 Max gradient component =       1.378E-04
 RMS gradient           =       4.948E-05
 Gradient time:  CPU 12.61 s  wall 0.79 s
 Geometry Optimization Parameters
   NAtoms,    NIC,     NZ,  NCons,   NDum,   NFix, NCnnct, MaxDiis
        6      25       0       0       0       0       0       0

 Cartesian Hessian Update
 Hessian updated using BFGS update


** GEOMETRY OPTIMIZATION IN DELOCALIZED INTERNAL COORDINATES **
   Searching for a Minimum

   Optimization Cycle:   5

                       Coordinates (Angstroms)
     ATOM                X               Y               Z
      1  O        -1.5177177268    0.1209636882    0.0000000000
      2  H        -1.9292083999   -0.7481501130    0.0000000000
      3  H        -0.5621105975   -0.0448251563    0.0000000000
      4  O         1.3905040035   -0.1087132971    0.0000000000
      5  H         1.7656381159    0.3365036950   -0.7675459208
      6  H         1.7656381159    0.3365036950    0.7675459208
   Point Group: cs    Number of degrees of freedom:     8


   Energy is   -152.707198166

 Hessian updated using BFGS update

  8 Hessian modes will be used to form the next step
  Hessian Eigenvalues:
     0.008151    0.027653    0.102984    0.174068    0.194486    0.546688
     0.552558    0.815251

 Minimum search - taking simple RFO step
 Searching for Lamda that Minimizes Along All modes
 Value Taken    Lamda =  -0.00000046
 Step Taken.  Stepsize is  0.005678

                             Maximum     Tolerance    Cnvgd?
         Gradient           0.000071      0.000050      NO
         Displacement       0.003888      0.000050      NO
         Energy change     -0.000000      0.000000      NO


 New Cartesian Coordinates Obtained by Inverse Iteration

 Displacement from previous Coordinates is:  0.005959
 ----------------------------------------------------------------
             Standard Nuclear Orientation (Angstroms)
    I     Atom           X                Y                Z
 ----------------------------------------------------------------
    1      O      -1.5170539735     0.1212915449     0.0000000000
    2      H      -1.9283784411    -0.7479565984     0.0000000000
    3      H      -0.5615850311    -0.0446170713     0.0000000000
    4      O       1.3914498206    -0.1103421675     0.0000000000
    5      H       1.7641555681     0.3369534021    -0.7675508380
    6      H       1.7641555681     0.3369534021     0.7675508380
 ----------------------------------------------------------------
 Molecular Point Group                 Cs    NOp =  2
 Largest Abelian Subgroup              Cs    NOp =  2
 Nuclear Repulsion Energy =          36.47549555 hartrees
 There are       10 alpha and       10 beta electrons
 Applying Cartesian multipole field
    Component          Value
    ---------          -----
     (2,0,0)        1.00000E-11
     (0,2,0)        2.00000E-11
     (0,0,2)       -3.00000E-11
 Nucleus-field energy     =     0.0000000015 hartrees
 Requested basis set is def2-SVPD
 There are 34 shells and 78 basis functions
 A cutoff of  1.0D-14 yielded    594 shell pairs
 There are      3162 function pairs (      3504 Cartesian)
 Smallest overlap matrix eigenvalue = 1.56E-03
 Attempting to make child job directory: /data/scratch/water_dimer_vfb_backward20240611233610//Frg1/
 Failed to make child job directory:     /data/scratch/water_dimer_vfb_backward20240611233610//Frg1/
 Attempting to make child job directory: /data/scratch/water_dimer_vfb_backward20240611233610//Frg2/
 Failed to make child job directory:     /data/scratch/water_dimer_vfb_backward20240611233610//Frg2/
 Creating input file /data/scratch/water_dimer_vfb_backward20240611233610/Frg1.input
 using default PutDataFrgm: nothing
 calling putenv with: QCSCRATCH=/data/scratch/water_dimer_vfb_backward20240611233610/ 
 Spawning Job For Fragment 0
 Done Job For Fragment 0
 calling putenv with: QCSCRATCH=/data/scratch 
 calling putenv with: QCTHREADS=16 
 Creating input file /data/scratch/water_dimer_vfb_backward20240611233610/Frg2.input
 using default PutDataFrgm: nothing
 calling putenv with: QCSCRATCH=/data/scratch/water_dimer_vfb_backward20240611233610/ 
 Spawning Job For Fragment 1
 Done Job For Fragment 1
 calling putenv with: QCSCRATCH=/data/scratch 
 calling putenv with: QCTHREADS=16 
 Time for running child jobs:  CPU 2.71 s  wall 4.66 s

 -----------------------------------------------------------------------
  General SCF calculation program by
  Eric Jon Sundstrom, Paul Horn, Yuezhi Mao, Dmitri Zuev, Alec White,
  David Stuck, Shaama M.S., Shane Yost, Joonho Lee, David Small,
  Daniel Levine, Susi Lehtola, Hugh Burton, Evgeny Epifanovsky,
  Bang C. Huynh
 -----------------------------------------------------------------------
Performing Restricted Closed Shell SCFMI
Doing General SCFMI
 Exchange:     0.1670 Hartree-Fock + 1.0000 wB97X-V + LR-HF
 Correlation:  1.0000 wB97X-V
 Using Euler-Maclaurin-Lebedev (75,302) quadrature formula
 Nonlocal Correlation:  VV10 with C = 0.0100 and b = 6.00 and scale = 1.00000
 Grid used for NLC:  SG-1 standard quadrature
performing fock build before subrot guess so that all methods have access
Printing subrot_rss_gen Method Specification:
Occupied Subspace Method is 0
Virtual Subspace Method is 0
Energy prior to optimization (guess energy) = -152.702472862563
Begin Timing: Total SCF Calculation
begin iterations for algorithm: DIIS         
the SCF tolerance is set to 1.00e-09
    1    -152.7024728626      7.53e-04     00000 
    2    -152.7041337435      2.14e-04     00000 
    3    -152.7042595060      8.69e-05     00000 
    4    -152.7042751089      5.17e-05     00000 
    5    -152.7042791593      1.96e-05     00000 
    6    -152.7042801129      3.89e-06     00000 
    7    -152.7042801463      8.92e-07     00000 
    8    -152.7042801478      5.74e-07     00000 
    9    -152.7042801483      1.48e-07     00000 
   10    -152.7042801484      4.14e-08     00000 
   11    -152.7042801484      9.72e-09     00000 
   12    -152.7042801484      2.27e-09     00000 
   13    -152.7042801484      5.74e-10     00000 Convergence criterion met
write pseudocanon occs and virts to disk
write pseudocanon orbital energies to disk
Timing for Total SCF: 3.00s (wall), 57.92s (cpu)
SCFMI Energy    -152.7042801484
<S^2>            0.00000
====================================================================
           Variational forward-backward (VFB) CT analysis           
 M. Loipersberger, Y. Mao and M. Head-Gordon, JCTC, 16, 1073 (2020) 
====================================================================
Calculating stabilization due to the backward (2->1) CT
Requested donor fragment: 2
updated OccSS dimension
        5
        5
updated VirtSS dimension
        34
        68
Energy prior to optimization (guess energy) = -152.704280148369
Begin Timing: Total SCF Calculation
begin iterations for algorithm: DIIS         
the SCF tolerance is set to 1.00e-09
    1    -152.7042801484      7.71e-04     00000 
[...]
   18  -0.0177658  -0.0217172  -0.0275480   0.1512972   0.1858340   0.3806908
 ----------------------------------------------------------------
             Standard Nuclear Orientation (Angstroms)
    I     Atom           X                Y                Z
 ----------------------------------------------------------------
    1      O      -1.5173667852     0.1212360920     0.0000000000
    2      H      -1.9275671948    -0.7484616214    -0.0000000000
    3      H      -0.5613785280    -0.0431280655    -0.0000000000
    4      O       1.3892963611    -0.1081699172    -0.0000000000
    5      H       1.7567545576     0.3435301442    -0.7675131084
    6      H       1.7567545576     0.3435301442     0.7675131084
 ----------------------------------------------------------------
 Nuclear Repulsion Energy =          36.49240786 hartrees
 There are       10 alpha and       10 beta electrons
 old dipole drv.
            1           2           3           4           5           6
    1  -0.7721503  -0.0255324   0.0000000   0.2960183  -0.0105960   0.0000000
    2  -0.0578453  -0.4080707   0.0000000   0.0006467   0.1415070   0.0000000
    3   0.0000000   0.0000000  -0.6790418  -0.0000000   0.0000000   0.3281280
            7           8           9          10          11          12
    1   0.6413837   0.0398787   0.0000000  -0.7606391   0.1294563   0.0000000
    2   0.0625348   0.2078721   0.0000000   0.1061141  -0.4685027   0.0000000
    3   0.0000000   0.0000000   0.2780488   0.0000000  -0.0000000  -0.5036681
           13          14          15          16          17          18
    1   0.2976940  -0.0666034   0.0116480   0.2976940  -0.0666034  -0.0116480
    2  -0.0557252   0.2635970   0.0349105  -0.0557252   0.2635970  -0.0349105
    3   0.0065823   0.0317453   0.2882668  -0.0065823  -0.0317453   0.2882668
 New transposed dipole drv.
            1           2           3
    1  -0.7721503  -0.0578453   0.0000000
    2  -0.0255324  -0.4080707   0.0000000
    3   0.0000000   0.0000000  -0.6790418
    4   0.2960183   0.0006467  -0.0000000
    5  -0.0105960   0.1415070   0.0000000
    6   0.0000000   0.0000000   0.3281280
    7   0.6413837   0.0625348   0.0000000
    8   0.0398787   0.2078721   0.0000000
    9   0.0000000   0.0000000   0.2780488
   10  -0.7606391   0.1061141   0.0000000
   11   0.1294563  -0.4685027  -0.0000000
   12   0.0000000   0.0000000  -0.5036681
   13   0.2976940  -0.0557252   0.0065823
   14  -0.0666034   0.2635970   0.0317453
   15   0.0116480   0.0349105   0.2882668
   16   0.2976940  -0.0557252  -0.0065823
   17  -0.0666034   0.2635970  -0.0317453
   18  -0.0116480  -0.0349105   0.2882668
FINAL TENSOR RESULT:
Order 2, Length 18
    Atom      X          Y          Z
     1 Order 1, Length 18
    Atom      X          Y          Z
     1    6.301684470120064e-01   1.077601687545566e-01   0.000000000000000e+00
     2   -1.307452489256444e-01  -2.187601336863212e-01   0.000000000000000e+00
     3   -4.885946891760338e-01   1.109229633870990e-01   0.000000000000000e+00
     4   -1.011726164913118e-02  -4.028111755820959e-04   0.000000000000000e+00
     5   -3.556179905623588e-04   2.399153348074802e-04  -1.292431085532392e-03
     6   -3.556179909699402e-04   2.399153354004927e-04   1.292431085840832e-03

Order 1, Length 18
    Atom      X          Y          Z
     1    1.077601687545566e-01   5.143041044081254e-01   0.000000000000000e+00
     2   -1.641417338520480e-01  -4.544187891836053e-01   0.000000000000000e+00
     3    5.685147909979405e-02  -6.263549012053299e-02   0.000000000000000e+00
     4   -2.427287007185315e-03   3.367055410515906e-03   0.000000000000000e+00
     5    9.786652725909690e-04  -3.084402114953919e-04  -6.075842414630922e-05
     6    9.786652725285467e-04  -3.084402114237898e-04   6.075842432256065e-05

Order 1, Length 18
    Atom      X          Y          Z
     1    0.000000000000000e+00   0.000000000000000e+00   3.659771240222791e-03
     2    0.000000000000000e+00   0.000000000000000e+00  -3.480134038550181e-04
     3    0.000000000000000e+00   0.000000000000000e+00  -6.099765241277609e-03
     4    0.000000000000000e+00   0.000000000000000e+00   4.020640561377719e-03
     5   -1.333348721698057e-03  -7.535508323742735e-05  -6.162956026818708e-04
     6    1.333348721698057e-03   7.535508323742735e-05  -6.162956026818708e-04


     2 Order 1, Length 18
    Atom      X          Y          Z
     1   -1.307452489256444e-01  -1.641417338520480e-01   0.000000000000000e+00
     2    1.484480704068530e-01   2.084714469717192e-01   0.000000000000000e+00
     3   -1.660647821754420e-02  -4.524292306663338e-02   0.000000000000000e+00
     4   -1.283966917207835e-03   9.286100562193715e-04   0.000000000000000e+00
     5    9.381471040278463e-05  -7.716580416763517e-06  -1.390721693290915e-05
     6    9.381471032934654e-05  -7.716580268051384e-06   1.390721646657728e-05

Order 1, Length 18
    Atom      X          Y          Z
     1   -2.187601336863212e-01  -4.544187891836053e-01   0.000000000000000e+00
     2    2.084714469717192e-01   4.516849641186242e-01   0.000000000000000e+00
     3    9.231985701331566e-03   2.966629650076001e-03   0.000000000000000e+00
     4    1.259956289592426e-03  -2.103466481798551e-04   0.000000000000000e+00
     5   -1.016163209252994e-04  -1.123605085314420e-05   1.307043106538643e-05
     6   -1.016163209895578e-04  -1.123605081642516e-05  -1.307043152070259e-05

Order 1, Length 18
    Atom      X          Y          Z
     1    0.000000000000000e+00   0.000000000000000e+00  -3.480134038550181e-04
     2    0.000000000000000e+00   0.000000000000000e+00   4.226443413376531e-04
     3    0.000000000000000e+00   0.000000000000000e+00  -1.102418385271738e-04
     4    0.000000000000000e+00   0.000000000000000e+00  -2.688468456267989e-04
     5    4.435715219245149e-05   1.519918544713832e-04   1.522184897198625e-04
     6   -4.435715219245149e-05  -1.519918544713832e-04   1.522184897198625e-04


     3 Order 1, Length 18
    Atom      X          Y          Z
     1   -4.885946891760338e-01   5.685147909979405e-02   0.000000000000000e+00
     2   -1.660647821754420e-02   9.231985701331566e-03   0.000000000000000e+00
     3    5.039210544987937e-01  -6.532555416861371e-02   0.000000000000000e+00
     4    1.294532585371650e-03  -3.113963921333922e-04   0.000000000000000e+00
     5   -7.231548773828599e-06  -2.232497571674333e-04   2.303521516497912e-03
     6   -7.231548623280514e-06  -2.232497569361033e-04  -2.303521516765961e-03

Order 1, Length 18
    Atom      X          Y          Z
     1    1.109229633870990e-01  -6.263549012053299e-02   0.000000000000000e+00
     2   -4.524292306663338e-02   2.966629650076001e-03   0.000000000000000e+00
     3   -6.532555416861371e-02   6.356087038425630e-02   0.000000000000000e+00
     4    3.750053410786372e-03  -4.318850883704100e-03   0.000000000000000e+00
     5   -2.052259296411492e-03   2.134262027379261e-04   1.618931047326781e-04
     6   -2.052259296686885e-03   2.134262024753849e-04  -1.618931062822218e-04

Order 1, Length 18
    Atom      X          Y          Z
     1    0.000000000000000e+00   0.000000000000000e+00  -6.099765241277609e-03
     2    0.000000000000000e+00   0.000000000000000e+00  -1.102418385271738e-04
     3    0.000000000000000e+00   0.000000000000000e+00   1.204432250790188e-02
     4    0.000000000000000e+00   0.000000000000000e+00  -7.084914546465598e-03
     5    3.267625503771468e-03  -1.678446274280937e-05   6.252886303025271e-04
     6   -3.267625503771468e-03   1.678446274280937e-05   6.252886303025271e-04


     4 Order 1, Length 18
    Atom      X          Y          Z
     1   -1.011726164913118e-02  -2.427287007185315e-03   0.000000000000000e+00
     2   -1.283966917207835e-03   1.259956289592426e-03   0.000000000000000e+00
     3    1.294532585371650e-03   3.750053410786372e-03   0.000000000000000e+00
     4    1.991384077180008e-01   2.217367898506767e-01   0.000000000000000e+00
     5   -9.451587168090528e-02  -1.121597646211653e-01   1.325342724132479e-01
     6   -9.451587168068129e-02  -1.121597646207155e-01  -1.325342724131487e-01

Order 1, Length 18
    Atom      X          Y          Z
     1   -4.028111755820959e-04   3.367055410515906e-03   0.000000000000000e+00
     2    9.286100562193715e-04  -2.103466481798551e-04   0.000000000000000e+00
     3   -3.113963921333922e-04  -4.318850883704100e-03   0.000000000000000e+00
     4    2.217367898506767e-01   2.741848333321321e-01   0.000000000000000e+00
     5   -1.109756174281568e-01  -1.365113801159717e-01   1.640026048859642e-01
     6   -1.109756174288379e-01  -1.365113801158083e-01  -1.640026048859274e-01

Order 1, Length 18
    Atom      X          Y          Z
     1    0.000000000000000e+00   0.000000000000000e+00   4.020640561377719e-03
     2    0.000000000000000e+00   0.000000000000000e+00  -2.688468456267989e-04
     3    0.000000000000000e+00   0.000000000000000e+00  -7.084914546465598e-03
     4    0.000000000000000e+00   0.000000000000000e+00   7.099411584661437e-01
     5    1.670843707784787e-01   2.074913890513601e-01  -3.533040326625755e-01
     6   -1.670843707784787e-01  -2.074913890513601e-01  -3.533040326625755e-01


     5 Order 1, Length 18
    Atom      X          Y          Z
     1   -3.556179905623588e-04   9.786652725909690e-04  -1.333348721698057e-03
     2    9.381471040278463e-05  -1.016163209252994e-04   4.435715219245149e-05
     3   -7.231548773828599e-06  -2.052259296411492e-03   3.267625503771468e-03
     4   -9.451587168090528e-02  -1.109756174281568e-01   1.670843707784787e-01
     5    8.956691523151551e-02   1.059203150886346e-01  -1.512972195982368e-01
     6    5.218020274938245e-03   6.230521223456357e-03  -1.776578117153036e-02

Order 1, Length 18
    Atom      X          Y          Z
     1    2.399153348074802e-04  -3.084402114953919e-04  -7.535508323742735e-05
     2   -7.716580416763517e-06  -1.123605085314420e-05   1.519918544713832e-04
     3   -2.232497571674333e-04   2.134262027379261e-04  -1.678446274280937e-05
     4   -1.121597646211653e-01  -1.365113801159717e-01   2.074913890513601e-01
     5    1.059203150886346e-01   1.294599290679037e-01  -1.858340140517411e-01
     6    6.230521223456357e-03   7.157736939590782e-03  -2.171722286156778e-02

Order 1, Length 18
    Atom      X          Y          Z
     1   -1.292431085532392e-03  -6.075842414630922e-05  -6.162956026818708e-04
     2   -1.390721693290915e-05   1.307043106538643e-05   1.522184897198625e-04
     3    2.303521516497912e-03   1.618931047326781e-04   6.252886303025271e-04
     4    1.325342724132479e-01   1.640026048859642e-01  -3.533040326625755e-01
     5   -1.512972195982368e-01  -1.858340140517411e-01   3.806908007481142e-01
     6    1.776578117153036e-02   2.171722286156778e-02  -2.754796542043054e-02


     6 Order 1, Length 18
    Atom      X          Y          Z
     1   -3.556179909699402e-04   9.786652725285467e-04   1.333348721698057e-03
     2    9.381471032934654e-05  -1.016163209895578e-04  -4.435715219245149e-05
     3   -7.231548623280514e-06  -2.052259296686885e-03  -3.267625503771468e-03
     4   -9.451587168068129e-02  -1.109756174288379e-01  -1.670843707784787e-01
     5    5.218020274938245e-03   6.230521223456357e-03   1.776578117153036e-02
     6    8.956691523151551e-02   1.059203150886346e-01   1.512972195982368e-01

Order 1, Length 18
    Atom      X          Y          Z
     1    2.399153354004927e-04  -3.084402114237898e-04   7.535508323742735e-05
     2   -7.716580268051384e-06  -1.123605081642516e-05  -1.519918544713832e-04
     3   -2.232497569361033e-04   2.134262024753849e-04   1.678446274280937e-05
     4   -1.121597646207155e-01  -1.365113801158083e-01  -2.074913890513601e-01
     5    6.230521223456357e-03   7.157736939590782e-03   2.171722286156778e-02
     6    1.059203150886346e-01   1.294599290679037e-01   1.858340140517411e-01

Order 1, Length 18
    Atom      X          Y          Z
     1    1.292431085840832e-03   6.075842432256065e-05  -6.162956026818708e-04
     2    1.390721646657728e-05  -1.307043152070259e-05   1.522184897198625e-04
     3   -2.303521516765961e-03  -1.618931062822218e-04   6.252886303025271e-04
     4   -1.325342724131487e-01  -1.640026048859274e-01  -3.533040326625755e-01
     5   -1.776578117153036e-02  -2.171722286156778e-02  -2.754796542043054e-02
     6    1.512972195982368e-01   1.858340140517411e-01   3.806908007481142e-01





 ###########################################
 # Finishing finite difference calculation #
 ###########################################

 Requested basis set is def2-SVPD
 There are 34 shells and 78 basis functions
 **********************************************************************
 **                                                                  **
 **                       VIBRATIONAL ANALYSIS                       **
 **                       --------------------                       **
 **                                                                  **
 **        VIBRATIONAL FREQUENCIES (CM**-1) AND NORMAL MODES         **
 **     FORCE CONSTANTS (mDYN/ANGSTROM) AND REDUCED MASSES (AMU)     **
 **                  INFRARED INTENSITIES (KM/MOL)                   **
 **                                                                  **
 **********************************************************************
 

 Mode:                 1                      2                      3
 Frequency:       128.89                 141.07                 162.63
 Force Cnst:      0.0104                 0.0145                 0.0162
 Red. Mass:       1.0660                 1.2328                 1.0366
 IR Active:          YES                    YES                    YES
 IR Intens:      156.076                206.754                 15.196
 Raman Active:       YES                    YES                    YES
               X      Y      Z        X      Y      Z        X      Y      Z
 O         -0.000 -0.000 -0.062   -0.111 -0.006  0.000   -0.000 -0.000 -0.018
 H          0.000 -0.000  0.768    0.248 -0.176 -0.000    0.000 -0.000 -0.287
 H          0.000  0.000  0.062   -0.049  0.362 -0.000   -0.000  0.000  0.381
 O         -0.000  0.000 -0.007    0.035  0.039 -0.000    0.000  0.000  0.040
 H         -0.184  0.387  0.132    0.504 -0.355 -0.005   -0.580  0.036 -0.218
 H          0.184 -0.387  0.132    0.504 -0.355  0.005    0.580 -0.036 -0.218
 TransDip   0.000 -0.000  0.400    0.423 -0.182 -0.000    0.000 -0.000 -0.125

 Mode:                 4                      5                      6
 Frequency:       185.13                 344.89                 616.15
 Force Cnst:      0.0793                 0.0765                 0.2333
 Red. Mass:       3.9286                 1.0922                 1.0429
 IR Active:          YES                    YES                    YES
 IR Intens:       91.169                 59.040                109.117
 Raman Active:       YES                    YES                    YES
               X      Y      Z        X      Y      Z        X      Y      Z
 O         -0.271  0.023 -0.000   -0.033  0.015  0.000    0.000 -0.000 -0.029
 H         -0.568  0.161  0.000    0.577 -0.276 -0.000   -0.000  0.000 -0.002
 H         -0.326 -0.292  0.000    0.067  0.579  0.000    0.000 -0.000  0.922
 O          0.343 -0.057  0.000    0.028 -0.060  0.000   -0.000  0.000 -0.039
 H         -0.125  0.342  0.009   -0.282  0.207  0.006    0.260 -0.017  0.077
 H         -0.125  0.342 -0.009   -0.282  0.207 -0.006   -0.260  0.017  0.077
 TransDip  -0.288  0.104  0.000    0.038  0.243 -0.000   -0.000 -0.000  0.335

 Mode:                 7                      8                      9
 Frequency:      1592.27                1614.25                3765.01
 Force Cnst:      1.6187                 1.6530                 8.8104
 Red. Mass:       1.0837                 1.0767                 1.0549
 IR Active:          YES                    YES                    YES
 IR Intens:       97.074                 42.969                345.143
 Raman Active:       YES                    YES                    YES
               X      Y      Z        X      Y      Z        X      Y      Z
 O          0.008 -0.016 -0.000    0.028 -0.060  0.000   -0.051  0.023  0.000
 H         -0.155  0.073 -0.000   -0.575  0.271 -0.000   -0.144 -0.237 -0.000
 H          0.030  0.186  0.000    0.128  0.714  0.000    0.946 -0.132 -0.000
 O         -0.045 -0.052  0.000    0.014  0.010 -0.000   -0.003 -0.004  0.000
 H          0.350  0.413  0.414   -0.104 -0.100 -0.110    0.024  0.028 -0.049
 H          0.350  0.413 -0.414   -0.104 -0.100  0.110    0.024  0.028  0.049
 TransDip   0.158  0.273  0.000   -0.137  0.159  0.000    0.595  0.001 -0.000

 Mode:                10                     11                     12
 Frequency:      3866.51                3952.04                3969.94
 Force Cnst:      9.2053                 9.8792                10.0540
 Red. Mass:       1.0451                 1.0736                 1.0827
 IR Active:          YES                    YES                    YES
 IR Intens:       16.375                106.975                100.808
 Raman Active:       YES                    YES                    YES
               X      Y      Z        X      Y      Z        X      Y      Z
 O          0.003 -0.003  0.000   -0.043 -0.050  0.000    0.000  0.000 -0.000
 H          0.026  0.046 -0.000    0.429  0.860 -0.000   -0.000 -0.000  0.000
 H         -0.074  0.007 -0.000    0.257 -0.066 -0.000   -0.000  0.000 -0.001
 O         -0.031 -0.038 -0.000    0.001  0.001 -0.000   -0.000 -0.000 -0.071
 H          0.251  0.305 -0.582   -0.007 -0.009  0.018   -0.270 -0.330  0.562
 H          0.251  0.305  0.582   -0.007 -0.009 -0.018    0.270  0.330  0.562
 TransDip   0.070  0.109  0.000    0.301  0.139  0.000   -0.000 -0.000  0.322

 STANDARD THERMODYNAMIC QUANTITIES AT   298.15 K  AND     1.00 ATM

   This Molecule has  0 Imaginary Frequencies
   Zero point vibrational energy:       29.076 kcal/mol

   Atom    1 Element O  Has Mass   15.99491
   Atom    2 Element H  Has Mass    1.00783
   Atom    3 Element H  Has Mass    1.00783
   Atom    4 Element O  Has Mass   15.99491
   Atom    5 Element H  Has Mass    1.00783
   Atom    6 Element H  Has Mass    1.00783
   Molecular Mass:    36.021140 amu
   Principal axes and moments of inertia in amu*Bohr^2:
                             1           2           3
    Eigenvalues --        8.29328   282.75602   282.94315
          X              -0.99941     0.00000    -0.03446
          Y               0.03446    -0.00000    -0.99941
          Z               0.00000     1.00000    -0.00000
   Rotational Symmetry Number is   1
   The Molecule is an Asymmetric Top
   Translational Enthalpy:        0.889 kcal/mol
   Rotational Enthalpy:           0.889 kcal/mol
   Vibrational Enthalpy:         31.003 kcal/mol
   gas constant (RT):             0.592 kcal/mol
   Translational Entropy:        36.674  cal/mol.K
   Rotational Entropy:           21.122  cal/mol.K
   Vibrational Entropy:          12.174  cal/mol.K

   Total Enthalpy:               33.372 kcal/mol
   Total Entropy:                69.971  cal/mol.K

   Quasi-RRHO corrections using alpha = 4, and omega = 100 cm^-1
   QRRHO-Vib. Enthalpy:          30.784 kcal/mol
   QRRHO-Vib. Entropy:           12.004  cal/mol.K
   QRRHO-Total Enthalpy:         33.154 kcal/mol
   QRRHO-Total Entropy:          69.801  cal/mol.K
 Total job time:  338.31s(wall), 3488.22s(cpu) 
 Tue Jun 11 23:43:42 2024

        *************************************************************
        *                                                           *
        *  Thank you very much for using Q-Chem.  Have a nice day.  *
        *                                                           *
        *************************************************************


