                  Welcome to Q-Chem
     A Quantum Leap Into The Future Of Chemistry


 Q-Chem 6.2 (devel), Q-Chem, Inc., Pleasanton, CA (2024)

 E. Epifanovsky,  A. T. B. Gilbert,  Xintian Feng,  Joonho Lee,  Yuezhi Mao,  
 N. Mardirossian,  P. Pokhilko,  A. White,  M. Wormit,  M. P. Coons,  
 A. L. Dempwolff,  Zhengting Gan,  D. Hait,  P. R. Horn,  L. D. Jacobson,  
 I. Kaliman,  J. Kussmann,  A. W. Lange,  Ka Un Lao,  D. S. Levine,  Jie Liu,  
 S. C. McKenzie,  A. F. Morrison,  K. D. Nanda,  F. Plasser,  D. R. Rehn,  
 M. L. Vidal,  Zhi-Qiang You,  Ying Zhu,  Huseyin Aksu,  B. Alam,  
 B. Albrecht,  A. Aldossary,  E. Alguire,  J. H. Andersen,  
 J. E. Arias-Martinez,  V. Athavale,  D. Barton,  K. Begam,  A. Behn,  
 N. Bellonzi,  Y. A. Bernard,  E. J. Berquist,  H. Burton,  A. Carreras,  
 K. Carter-Fenk,  Mathew Chow,  Romit Chakraborty,  Chandrima Chakravarty,  
 Junhan Chen,  A. D. Chien,  K. D. Closser,  V. Cofer-Shabica,  L. Cunha,  
 S. Dasgupta,  Jia Deng,  Joseph Dickinson,  M. de Wergifosse,  
 M. Diedenhofen,  Hainam Do,  Wenjie Dou,  S. Ehlert,  Po-Tung Fang,  
 S. Fatehi,  Qingguo Feng,  Jonathan Fetherolf,  T. Friedhoff,  
 Thomas Froitzheim,  Sarai Folkestad,  B. Ganoe,  J. Gayvert,  Qinghui Ge,  
 G. Gidofalvi,  M. Gimferrer,  M. Goldey,  Montgomery Gray,  J. Gomes,  
 C. Gonzalez-Espinoza,  S. Gulania,  A. Gunina,  J. A. Gyamfi,  
 M. W. D. Hanson-Heine,  P. H. P. Harbach,  A. W. Hauser,  M. F. Herbst,  
 M. Hernandez Vera,  M. Hodecker,  Z. C. Holden,  S. Houck,  Xunkun Huang,  
 Kerwin Hui,  B. C. Huynh,  K. Ikeda,  M. Ivanov,  Nayanthara K. Jayadev,  
 Hyunjun Ji,  Zuxin Jin,  Hanjie Jiang,  Subrata Jana,  B. Kaduk,  
 S. Kaehler,  R. Kang,  K. Khistyaev,  Jaehoon Kim,  Yongbin Kim,  
 P. Klunzinger,  Z. Koczor-Benda,  Joong Hoon Koh,  D. Kosenkov,  
 Saikiran Kotaru,  L. Koulias,  T. Kowalczyk,  C. M. Krauter,  K. Kue,  
 A. Kunitsa,  T. Kus,  A. Landau,  K. V. Lawler,  D. Lefrancois,  S. Lehtola,  
 Rain Li,  Shaozhi Li,  Tao E. Li,  Yi-Pei Li,  Jiashu Liang,  M. Liebenthal,  
 Hung-Hsuan Lin,  You-Sheng Lin,  Fenglai Liu,  Kuan-Yu Liu,  Xiao Liu,  
 M. Loipersberger,  A. Luenser,  C. Malbon,  Aniket Mandal,  Manisha,  
 A. Manjanath,  P. Manohar,  E. Mansoor,  S. F. Manzer,  Shan-Ping Mao,  
 A. V. Marenich,  T. Markovich,  S. Mason,  F. Matz,  S. A. Maurer,  
 Samuel May,  Alexandra McIsaac,  P. F. McLaughlin,  M. F. S. J. Menger,  
 J.-M. Mewes,  S. A. Mewes,  P. Morgante,  Mohammad Mostafanejad,  
 Madhubani Mukherjee,  J. W. Mullinax,  Quyen Nguyen,  Avik Kumar Ojha,  
 K. J. Oosterbaan,  Eno Paenurk,  Xiaoliang Pan,  G. Paran,  V. Parravicini,  
 Alexander C. Paul,  Suranjan K. Paul,  F. Pavosevic,  Zheng Pei,  S. Prager,  
 E. I. Proynov,  E. Ramos,  B. Rana,  A. E. Rask,  A. Rettig,  R. M. Richard,  
 F. Rob,  E. Rossomme,  T. Scheele,  M. Scheurer,  M. Schneider,  
 P. E. Schneider,  Tim K. Schramm,  N. Sergueev,  S. M. Sharada,  
 Hengyuan Shen,  W. Skomorowski,  D. W. Small,  C. J. Stein,  
 Alistair J. Sterling,  Yingli Su,  Yu-Chuan Su,  E. J. Sundstrom,  
 J. Talbot,  Zhen Tao,  J. Thirman,  Hung-Yi Tsai,  T. Tsuchimochi,  
 N. M. Tubman,  C. Utku,  S. P. Veccham,  O. Vydrov,  Rahel Weiss,  
 J. Wenzel,  Jonathan Wong,  J. Witte,  H. Wu,  Yanze Wu,  A. Yamada,  
 Chou-Hsun Yang,  Kun Yao,  S. Yeganeh,  S. R. Yost,  Qi Yu,  A. Zech,  
 F. Zeller,  Chongxiao Zhao,  Igor Ying Zhang,  Xing Zhang,  Yu Zhang,  
 D. Zuev,  A. Aspuru-Guzik,  A. T. Bell,  N. A. Besley,  K. B. Bravaya,  
 B. R. Brooks,  D. Casanova,  Jeng-Da Chai,  Hsing-Ta Chen,  S. Coriani,  
 C. J. Cramer,  A. E. DePrince, III,  R. A. DiStasio Jr.,  A. Dreuw,  
 B. D. Dunietz,  T. R. Furlani,  W. A. Goddard III,  S. Grimme,  
 S. Hammes-Schiffer,  T. Head-Gordon,  W. J. Hehre,  Chao-Ping Hsu,  
 T.-C. Jagau,  Yousung Jung,  A. Klamt,  Jing Kong,  D. S. Lambrecht,  
 Xiangyuan Li,  WanZhen Liang,  N. J. Mayhall,  C. W. McCurdy,  J. B. Neaton,  
 T. Neudecker,  C. Ochsenfeld,  J. A. Parkhill,  R. Peverati,  
 V. A. Rassolov,  Haisheng Ren,  Yihan Shao,  L. V. Slipchenko,  
 R. P. Steele,  J. E. Subotnik,  A. J. W. Thom,  A. Tkatchenko,  
 D. G. Truhlar,  T. Van Voorhis,  Fan Wang,  T. A. Wesolowski,  K. B. Whaley,  
 H. L. Woodcock III,  P. M. Zimmerman,  S. Faraji,  P. M. W. Gill,  
 M. Head-Gordon,  J. M. Herbert,  A. I. Krylov

 Contributors to earlier versions of Q-Chem not listed above: 
 R. D. Adamson,  B. Austin,  R. Baer,  J. Baker,  G. J. O. Beran,  
 K. Brandhorst,  S. T. Brown,  E. F. C. Byrd,  Arup K. Chakraborty,  
 G. K. L. Chan,  Chun-Min Chang,  Yunqing Chen,  C.-L. Cheng,  
 Siu Hung Chien,  D. M. Chipman,  D. L. Crittenden,  H. Dachsel,  
 R. J. Doerksen,  A. D. Dutoi,  R. G. Edgar,  J. Fosso-Tande,  
 L. Fusti-Molnar,  D. Ghosh,  A. Ghysels,  A. Golubeva-Zadorozhnaya,  
 J. Gonthier,  M. S. Gordon,  S. R. Gwaltney,  G. Hawkins,  J. E. Herr,  
 A. Heyden,  S. Hirata,  E. G. Hohenstein,  G. Kedziora,  F. J. Keil,  
 C. Kelley,  Jihan Kim,  R. A. King,  R. Z. Khaliullin,  P. P. Korambath,  
 W. Kurlancheek,  A. Laurent,  A. M. Lee,  M. S. Lee,  S. V. Levchenko,  
 Ching Yeh Lin,  D. Liotard,  E. Livshits,  R. C. Lochan,  I. Lotan,  
 L. A. Martinez-Martinez,  P. E. Maslen,  N. Nair,  D. P. O'Neill,  
 D. Neuhauser,  E. Neuscamman,  C. M. Oana,  R. Olivares-Amaya,  R. Olson,  
 T. M. Perrine,  B. Peters,  P. A. Pieniazek,  A. Prociuk,  Y. M. Rhee,  
 J. Ritchie,  M. A. Rohrdanz,  E. Rosta,  N. J. Russ,  H. F. Schaefer III,  
 M. W. Schmidt,  N. E. Schultz,  S. Sharma,  N. Shenvi,  C. D. Sherrill,  
 A. C. Simmonett,  A. Sodt,  T. Stein,  D. Stuck,  K. S. Thanthiriwatte,  
 V. Vanovschi,  L. Vogt,  Tao Wang,  A. Warshel,  M. A. Watson,  
 C. F. Williams,  Q. Wu,  X. Xu,  Jun Yang,  W. Zhang,  Yan Zhao

   Please cite Q-Chem as follows:
  "Software for the frontiers of quantum chemistry:
   An overview of developments in the Q-Chem 5 package"
   J. Chem. Phys. 155, 084801 (2021)
   https://doi.org/10.1063/5.0055522 (open access)

 Q-Chem 6.2.0 for Intel X86 EM64T Linux

 Parts of Q-Chem use Armadillo 9.900.5 (Nocturnal Misbehaviour).
 http://arma.sourceforge.net/

 Q-Chem begins on Wed Jun 12 02:19:54 2024  

 Host: 
0

     Scratch files written to /data/scratch/Me3SiH_ICN_frzgeom_bond_0.0010_eda2_op2_wB97X-V_svpd20240612021952//
 Processing $rem in /home/ymao/my_qchem/qchem_ymao_quick_fix/config/preferences:
 Processing $rem in /home/ymao/.qchemrc:

 Q-Chem warning in module libgen/rem_setup.C, line 3380:

 Neither GIA nor STOLL is specified by user. Use STOLL as the default


 Checking the input file for inconsistencies... 	...done.
 Reading auxiliary files from /home/ymao/my_qchem/qcaux_trunk (QCAUX)

--------------------------------------------------------------
User input:
--------------------------------------------------------------
$molecule
0 1
--
0 1
H    -1.66901   -0.00014   1.18983   
Si   -2.69846   -0.00001   0.08970   
C    -2.44852   -1.54844   -0.95401  
H    -1.44869   -1.56825   -1.41715  
H    -2.55681   -2.46283   -0.34876  
H    -3.19177   -1.59545   -1.76698  
C    -4.40358   -0.00013   0.88762   
H    -4.54997   -0.89028   1.52011   
H    -5.19519   -0.00004   0.12025   
H    -4.54999   0.88985    1.52035   
C    -2.44856   1.54868    -0.95363  
H    -3.19178   1.59586    -1.76661  
H    -1.44871   1.56864    -1.41674  
H    -2.55690   2.46292    -0.34816  
--
0 1
I    1.48669    0.00010    0.38158   
C    3.32273    0.00015    -0.42477  
N    4.38211    0.00016    -0.89124  
$end

$rem
JOBTYPE  EDA
EDA2  2
METHOD  WB97X-V
BASIS  DEF2-SVPD
SYMMETRY  FALSE
SYM_IGNORE  TRUE
MEM_TOTAL  8000
MEM_STATIC  2000
BASIS_LIN_DEP_THRESH  6
THRESH  14
SCF_CONVERGENCE  8
GEN_SCFMAN  TRUE
MAXSCF  200
FD_MAT_VEC_PROD  FALSE
XC_GRID  000099000590
NL_GRID  1
SCF_GUESS  FRAGMO
FRZ_ORTHO_DECOMP  -1
EDA_CLS_DISP  TRUE
$end
--------------------------------------------------------------
 ----------------------------------------------------------------
             Standard Nuclear Orientation (Angstroms)
    I     Atom           X                Y                Z
 ----------------------------------------------------------------
    1      H      -1.6690100000    -0.0001400000     1.1898300000
    2      Si     -2.6984600000    -0.0000100000     0.0897000000
    3      C      -2.4485200000    -1.5484400000    -0.9540100000
    4      H      -1.4486900000    -1.5682500000    -1.4171500000
    5      H      -2.5568100000    -2.4628300000    -0.3487600000
    6      H      -3.1917700000    -1.5954500000    -1.7669800000
    7      C      -4.4035800000    -0.0001300000     0.8876200000
    8      H      -4.5499700000    -0.8902800000     1.5201100000
    9      H      -5.1951900000    -0.0000400000     0.1202500000
   10      H      -4.5499900000     0.8898500000     1.5203500000
   11      C      -2.4485600000     1.5486800000    -0.9536300000
   12      H      -3.1917800000     1.5958600000    -1.7666100000
   13      H      -1.4487100000     1.5686400000    -1.4167400000
   14      H      -2.5569000000     2.4629200000    -0.3481600000
   15      I       1.4866900000     0.0001000000     0.3815800000
   16      C       3.3227300000     0.0001500000    -0.4247700000
   17      N       4.3821100000     0.0001600000    -0.8912400000
 ----------------------------------------------------------------
 Nuclear Repulsion Energy =         425.40465970 hartrees
 There are       40 alpha and       40 beta electrons
 Requested basis set is def2-SVPD
 There are 103 shells and 239 basis functions

 Total QAlloc Memory Limit   8000 MB
 Mega-Array Size      1956 MB
 MEM_STATIC part      2000 MB

 A cutoff of  1.0D-14 yielded   4860 shell pairs
 There are     26154 function pairs (     29547 Cartesian)
 Requested basis set is def2-SVPD
 Compound shells will be simplified
 There are 103 shells and 239 basis functions
 A cutoff of  1.0D-14 yielded   4860 shell pairs
 There are     26154 function pairs (     29547 Cartesian)
 Smallest overlap matrix eigenvalue = 1.67E-04

 Scale SEOQF with 1.000000e-02/1.000000e-01/1.000000e-01

 Standard Electronic Orientation quadrupole field applied
 Nucleus-field energy     =     0.0000000015 hartrees

 -----------------------------------------------------------------------
  General SCF calculation program by
  Eric Jon Sundstrom, Paul Horn, Yuezhi Mao, Dmitri Zuev, Alec White,
  David Stuck, Shaama M.S., Shane Yost, Joonho Lee, David Small,
  Daniel Levine, Susi Lehtola, Hugh Burton, Evgeny Epifanovsky,
  Bang C. Huynh
 -----------------------------------------------------------------------
================================================================
                 ALMO-EDA with the EDA2 driver                  
================================================================
 The second-generation ALMO-EDA (for DFT):                      
 P. R. Horn, Y. Mao and M. Head-Gordon, PCCP, 18, 23067 (2016)  
 Y. Mao et al. Annu. Rev. Phys. Chem. 72, 641 (2021)            
 Decomposition of the frozen energy:                            
 P. R. Horn, Y. Mao and M. Head-Gordon, JCP, 144, 114107 (2016) 
================================================================
 Using eda2 option set 2
 Option set summary: Frozen orbital wavefunction, initial wavefunction decomposition, and traditional AO-based POL.
--------------------------------
Printing EDA Options
--------------------------------
eda_child_super_basis      0
fragmo_guess_mode          0
child_mp                   0
child_mp_orders            0
cls_elec                   1
cls_disp                   1
scfmi_mode                 1
scfmi_occs                 0
scfmi_virts                0
frz_relax                  0
frz_relax_method           0
dc_pen_start               0
dc_pen_conv                0
dc_pen_increment           0
dc_pen_steps               0
dc_pen_thresh_factor       0
dc_pen_pre_newton_thresh   0
frz_ortho_decomp           0
frz_ortho_decomp_conv      6
plot_mo_ortho_frz          0
frgm_method                2
scfmi_freeze_ss            0
separate_rehyb             0
plot_diff_den              0
eda_nocv                   0
eda_vct_relax              1
disp_free_x                0
disp_free_c                0
eda_bsse                   0
eda_pct_a                  0
eda_covp                   0
eda_pol_a                  0
eda_vct_a                  0
print_level                1
--------------------------------
 Attempting to make child job directory: /data/scratch/Me3SiH_ICN_frzgeom_bond_0.0010_eda2_op2_wB97X-V_svpd20240612021952//Frg1/
 Attempting to make child job directory: /data/scratch/Me3SiH_ICN_frzgeom_bond_0.0010_eda2_op2_wB97X-V_svpd20240612021952//Frg2/
 Creating input file /data/scratch/Me3SiH_ICN_frzgeom_bond_0.0010_eda2_op2_wB97X-V_svpd20240612021952/Frg1.input
 using default PutDataFrgm: nothing
 calling putenv with: QCSCRATCH=/data/scratch/Me3SiH_ICN_frzgeom_bond_0.0010_eda2_op2_wB97X-V_svpd20240612021952/ 
 Spawning Job For Fragment 0
 Done Job For Fragment 0
 calling putenv with: QCSCRATCH=/data/scratch 
 calling putenv with: QCTHREADS=8 
 Creating input file /data/scratch/Me3SiH_ICN_frzgeom_bond_0.0010_eda2_op2_wB97X-V_svpd20240612021952/Frg2.input
 using default PutDataFrgm: nothing
 calling putenv with: QCSCRATCH=/data/scratch/Me3SiH_ICN_frzgeom_bond_0.0010_eda2_op2_wB97X-V_svpd20240612021952/ 
 Spawning Job For Fragment 1
 Done Job For Fragment 1
 calling putenv with: QCSCRATCH=/data/scratch 
 calling putenv with: QCTHREADS=8 
Doing General SCFMI
 Exchange:     0.1670 Hartree-Fock + 1.0000 wB97X-V + LR-HF
 Correlation:  1.0000 wB97X-V
 Using Euler-Maclaurin-Lebedev (99,590) quadrature formula
 Nonlocal Correlation:  VV10 with C = 0.0100 and b = 6.00 and scale = 1.00000
 Grid used for NLC:  SG-1 standard quadrature
performing fock build before subrot guess so that all methods have access
Printing subrot_rss_gen Method Specification:
Occupied Subspace Method is 0
Virtual Subspace Method is 0
Energy of the unrelaxed supersystem initial determinant -800.017676279628
write pseudocanon occs and virts to disk
write pseudocanon orbital energies to disk
 Exchange:     0.1670 Hartree-Fock + 1.0000 wB97X-V + LR-HF
 Correlation:  1.0000 wB97X-V
 Using Euler-Maclaurin-Lebedev (99,590) quadrature formula
 Nonlocal Correlation:  VV10 with C = 0.0100 and b = 6.00 and scale = 1.00000
 Grid used for NLC:  SG-1 standard quadrature
 Long-range K will be added via erf
 Coulomb attenuation parameter = 0.3 bohr**(-1)
 Nonlocal correlation = 0.312782153442
 Hartree-Fock
Doing General SCFMI
 Exchange:     0.1670 Hartree-Fock + 1.0000 wB97X-V + LR-HF
 Correlation:  1.0000 wB97X-V
 Using Euler-Maclaurin-Lebedev (99,590) quadrature formula
 Nonlocal Correlation:  VV10 with C = 0.0100 and b = 6.00 and scale = 1.00000
 Grid used for NLC:  SG-1 standard quadrature
performing fock build at end of subrot_r(subrot) constructor so that all methods have access
<S^2> of initial wavefunction before polarization iterations 0.0000000000
Beginning iterations for the determination of the polarized wavefunction
Energy prior to optimization (guess energy) = -800.017676279628
Begin Timing: Total SCF Calculation
begin iterations for algorithm: DIIS         
the SCF tolerance is set to 1.00e-08
    1    -800.0176762796      1.34e-04     00000 
    2    -800.0185051669      5.04e-05     00000 
    3    -800.0185955985      2.27e-05     00000 
    4    -800.0186141206      1.07e-05     00000 
    5    -800.0186165022      7.79e-06     00000 
    6    -800.0186176289      2.51e-06     00000 
    7    -800.0186177798      7.62e-07     00000 
    8    -800.0186177950      1.41e-07     00000 
    9    -800.0186177956      5.02e-08     00000 
   10    -800.0186177956      1.93e-08     00000 
   11    -800.0186177956      6.40e-09     00000 Convergence criterion met
write pseudocanon occs and virts to disk
write pseudocanon orbital energies to disk
Timing for Total SCF: 58.00s (wall), 468.87s (cpu)
<S^2> of polarized wavefunction after polarization iterations 0.0000000000
relaxing scfmi constraint to allow all rotations in the entire AO span
Doing General SCFMI
 Exchange:     0.1670 Hartree-Fock + 1.0000 wB97X-V + LR-HF
 Correlation:  1.0000 wB97X-V
 Using Euler-Maclaurin-Lebedev (99,590) quadrature formula
 Nonlocal Correlation:  VV10 with C = 0.0100 and b = 6.00 and scale = 1.00000
 Grid used for NLC:  SG-1 standard quadrature
performing fock build at end of subrot_r(subrot) constructor so that all methods have access
<S^2> of polarized wavefunction before ct-allowed iterations 0.0000000000
Beginning iterations for the determination of the CT-Allowed wavefunction
Energy prior to optimization (guess energy) = -800.018617795647
Begin Timing: Total SCF Calculation
begin iterations for algorithm: DIIS         
the SCF tolerance is set to 1.00e-08
    1    -800.0186177956      2.79e-04     00000 
    2    -800.0197189055      1.87e-05     00000 
    3    -800.0197551723      4.57e-06     00000 
    4    -800.0197573723      4.11e-06     00000 
    5    -800.0197578136      7.61e-07     00000 
    6    -800.0197578518      1.68e-07     00000 
    7    -800.0197578535      4.39e-08     00000 
    8    -800.0197578537      1.78e-08     00000 
    9    -800.0197578537      3.62e-09     00000 Convergence criterion met
write pseudocanon occs and virts to disk
write pseudocanon orbital energies to disk
Timing for Total SCF: 46.00s (wall), 368.33s (cpu)
<S^2> of ct_allowed wavefunction after ct-allowed iterations 0.0000000000

================================
        Results of EDA2         
================================
Basic EDA Quantities
--------------------
Fragment Energies (Ha):
1   -409.6081343390
2   -390.4061086091
--------------------
  E_prp (kJ/mol) = 0.0000
  E_frz (kJ/mol) = -9.0143
  E_pol (kJ/mol) = -2.4720
  E_vct (kJ/mol) = -2.9933
  E_int (kJ/mol) = -14.4796
--------------------


Decomposition of frozen interaction energy
--------------------
  --------------------
  Classical Frozen Decomposition:
  --------------------
     E_cls_elec  (CLS ELEC)  (kJ/mol) = -7.63428503
     E_mod_pauli (MOD PAULI) (kJ/mol) = 8.57166080 (FRZ - CLS ELEC - CLS DISP)
     E_cls_disp  (CLS DISP)  (kJ/mol) = -9.95169476
  --------------------
--------------------

Simplified EDA Summary (kJ/mol)
--------------------
 PREPARATION      0.0000
 FROZEN           -9.0143 (ELEC + PAULI + DISP)
[ELEC + PAULI = 0.9374, DISP = -9.9517]
 POLARIZATION    -2.4720
 CHARGE TRANSFER -2.9933
 TOTAL           -14.4796     (PRP + FRZ + POL + CT)
--------------------
 
 --------------------------------------------------------------
 
                    Orbital Energies (a.u.)
 --------------------------------------------------------------
 
 Alpha MOs
 -- Occupied --
-66.1357 -14.4439 -10.3604 -10.2764 -10.2763 -10.2762  -7.0091  -5.3906
 -5.0468  -5.0261  -5.0260  -3.7450  -3.7440  -3.7439  -2.0996  -2.0926
 -2.0925  -2.0753  -2.0753  -1.0458  -0.9017  -0.8516  -0.8111  -0.8110
 -0.6160  -0.6033  -0.5401  -0.5278  -0.5274  -0.5075  -0.5075  -0.4970
 -0.4958  -0.4954  -0.4881  -0.4241  -0.4169  -0.4166  -0.3966  -0.3965
 -- Virtual --
  0.0117   0.0612   0.0682   0.0704   0.0767   0.0887   0.0915   0.1015
  0.1122   0.1139   0.1401   0.1423   0.1436   0.1505   0.1556   0.1688
  0.1707   0.1750   0.1872   0.1928   0.1968   0.2023   0.2074   0.2148
  0.2190   0.2248   0.2294   0.2328   0.2496   0.2742   0.2835   0.2855
  0.2892   0.2985   0.3048   0.3121   0.3252   0.3310   0.3375   0.3468
  0.3607   0.3695   0.3753   0.3827   0.3869   0.3943   0.3984   0.4022
  0.4048   0.4155   0.4170   0.4258   0.4275   0.4336   0.4439   0.4464
  0.4577   0.4612   0.4644   0.4671   0.4742   0.4752   0.4813   0.4881
  0.4939   0.5137   0.5160   0.5237   0.5277   0.5318   0.5369   0.5379
  0.5484   0.5485   0.5590   0.5625   0.5697   0.5952   0.5967   0.5998
  0.6044   0.6096   0.6156   0.6273   0.6335   0.6378   0.6392   0.6465
  0.6836   0.6882   0.6914   0.6955   0.7060   0.7233   0.7282   0.7499
  0.7673   0.7787   0.7924   0.8330   0.8394   0.8443   0.8750   0.8891
  0.9065   0.9078   0.9148   0.9510   0.9626   0.9751   0.9912   1.0051
  1.0312   1.0344   1.0375   1.0740   1.0771   1.0820   1.0916   1.0930
  1.1102   1.1509   1.1600   1.1698   1.1774   1.2083   1.2428   1.2544
  1.2605   1.2760   1.2790   1.3103   1.3348   1.3364   1.3448   1.3772
  1.3878   1.4165   1.4425   1.6389   1.6792   1.6959   1.7153   1.7474
  1.7664   1.7887   1.8064   1.8080   1.8177   1.8566   1.8584   1.8871
  1.8929   1.9137   1.9330   2.0162   2.0172   2.0176   2.0183   2.0526
  2.0533   2.0657   2.0919   2.1219   2.1359   2.1538   2.1956   2.2072
  2.2283   2.2372   2.3256   2.4487   2.4762   2.4772   2.5380   2.5385
  2.6049   2.6093   2.6093   2.6230   2.6261   2.6385   2.7218   2.8980
  2.9008   2.9075   2.9750   2.9767   3.1754   3.1812   3.1827   3.2145
  3.2240   3.2390   3.5649  18.9299  19.0517  19.8149  56.4862
 --------------------------------------------------------------
 
          Ground-State Mulliken Net Atomic Charges

     Atom                 Charge (a.u.)
  ----------------------------------------
      1 H                     0.335407
      2 Si                   -0.594712
      3 C                     0.147420
      4 H                    -0.063009
      5 H                    -0.025962
      6 H                    -0.018076
      7 C                     0.248278
      8 H                    -0.021661
      9 H                    -0.004734
     10 H                    -0.021657
     11 C                     0.147418
     12 H                    -0.018098
     13 H                    -0.062986
     14 H                    -0.025958
     15 I                     0.378472
     16 C                    -0.258323
     17 N                    -0.141818
  ----------------------------------------
  Sum of atomic charges =     0.000000

 -----------------------------------------------------------------
                    Cartesian Multipole Moments
 -----------------------------------------------------------------
    Charge (ESU x 10^10)
                 0.0000
    Dipole Moment (Debye)
         X      -4.4848      Y      -0.0000      Z       0.9937
       Tot       4.5936
    Quadrupole Moments (Debye-Ang)
        XX     -89.3139     XY      -0.0007     YY     -73.0912
        XZ       6.1555     YZ       0.0002     ZZ     -74.2626
    Octopole Moments (Debye-Ang^2)
       XXX     -52.9880    XXY      -0.0079    XYY      20.3161
       YYY      -0.0165    XXZ      25.1244    XYZ       0.0008
       YYZ       6.7647    XZZ      14.6792    YZZ      -0.0042
       ZZZ      10.7635
    Hexadecapole Moments (Debye-Ang^3)
      XXXX   -4002.0698   XXXY      -0.0542   XXYY    -632.3931
      XYYY      -0.0283   YYYY    -357.6393   XXXZ     203.6859
      XXYZ       0.0029   XYYZ       3.8244   YYYZ      -0.0048
      XXZZ    -652.5557   XYZZ      -0.0149   YYZZ    -113.0741
      XZZZ      53.2767   YZZZ      -0.0053   ZZZZ    -315.3160
 -----------------------------------------------------------------
 Total job time:  190.02s(wall), 1079.42s(cpu) 
 Wed Jun 12 02:23:04 2024

        *************************************************************
        *                                                           *
        *  Thank you very much for using Q-Chem.  Have a nice day.  *
        *                                                           *
        *************************************************************


