
Running Job 1 of 1 CH3SH_water_Cs_eda2_op1_wB97X-V_tzvppd.in
qchem CH3SH_water_Cs_eda2_op1_wB97X-V_tzvppd.in_2205884.0 /data/scratch/CH3SH_water_Cs_eda2_op1_wB97X-V_tzvppd20250421011951/ 1
/opt/qchem/6.2.0/exe/qcprog.exe_s CH3SH_water_Cs_eda2_op1_wB97X-V_tzvppd.in_2205884.0 /data/scratch/CH3SH_water_Cs_eda2_op1_wB97X-V_tzvppd20250421011951/
                  Welcome to Q-Chem
     A Quantum Leap Into The Future Of Chemistry


 Q-Chem 6.2, Q-Chem, Inc., Pleasanton, CA (2024)

 E. Epifanovsky,  A. T. B. Gilbert,  Xintian Feng,  Joonho Lee,  Yuezhi Mao,  
 N. Mardirossian,  P. Pokhilko,  A. White,  M. Wormit,  M. P. Coons,  
 A. L. Dempwolff,  Zhengting Gan,  D. Hait,  P. R. Horn,  L. D. Jacobson,  
 I. Kaliman,  J. Kussmann,  A. W. Lange,  Ka Un Lao,  D. S. Levine,  Jie Liu,  
 S. C. McKenzie,  A. F. Morrison,  K. D. Nanda,  F. Plasser,  D. R. Rehn,  
 M. L. Vidal,  Zhi-Qiang You,  Ying Zhu,  Huseyin Aksu,  B. Alam,  
 B. Albrecht,  A. Aldossary,  E. Alguire,  J. H. Andersen,  
 J. E. Arias-Martinez,  V. Athavale,  D. Barton,  K. Begam,  A. Behn,  
 N. Bellonzi,  Y. A. Bernard,  E. J. Berquist,  H. Burton,  A. Carreras,  
 K. Carter-Fenk,  Mathew Chow,  Romit Chakraborty,  Chandrima Chakravarty,  
 Junhan Chen,  A. D. Chien,  K. D. Closser,  V. Cofer-Shabica,  L. Cunha,  
 S. Dasgupta,  Jia Deng,  Joseph Dickinson,  M. de Wergifosse,  
 M. Diedenhofen,  Hainam Do,  Wenjie Dou,  S. Ehlert,  Po-Tung Fang,  
 S. Fatehi,  Qingguo Feng,  Jonathan Fetherolf,  T. Friedhoff,  
 Thomas Froitzheim,  Sarai Folkestad,  B. Ganoe,  J. Gayvert,  Qinghui Ge,  
 G. Gidofalvi,  M. Gimferrer,  M. Goldey,  Montgomery Gray,  J. Gomes,  
 C. Gonzalez-Espinoza,  S. Gulania,  A. Gunina,  J. A. Gyamfi,  
 M. W. D. Hanson-Heine,  P. H. P. Harbach,  A. W. Hauser,  M. F. Herbst,  
 M. Hernandez Vera,  M. Hodecker,  Z. C. Holden,  S. Houck,  Xunkun Huang,  
 Kerwin Hui,  B. C. Huynh,  K. Ikeda,  M. Ivanov,  Nayanthara K. Jayadev,  
 Hyunjun Ji,  Zuxin Jin,  Hanjie Jiang,  Subrata Jana,  B. Kaduk,  
 S. Kaehler,  R. Kang,  K. Khistyaev,  Jaehoon Kim,  Yongbin Kim,  
 P. Klunzinger,  Z. Koczor-Benda,  Joong Hoon Koh,  D. Kosenkov,  
 Saikiran Kotaru,  L. Koulias,  T. Kowalczyk,  C. M. Krauter,  K. Kue,  
 A. Kunitsa,  T. Kus,  A. Landau,  K. V. Lawler,  D. Lefrancois,  S. Lehtola,  
 Rain Li,  Shaozhi Li,  Tao E. Li,  Yi-Pei Li,  Jiashu Liang,  M. Liebenthal,  
 Hung-Hsuan Lin,  You-Sheng Lin,  Fenglai Liu,  Kuan-Yu Liu,  Xiao Liu,  
 M. Loipersberger,  A. Luenser,  C. Malbon,  Aniket Mandal,  Manisha,  
 A. Manjanath,  P. Manohar,  E. Mansoor,  S. F. Manzer,  Shan-Ping Mao,  
 A. V. Marenich,  T. Markovich,  S. Mason,  F. Matz,  S. A. Maurer,  
 Samuel May,  Alexandra McIsaac,  P. F. McLaughlin,  M. F. S. J. Menger,  
 J.-M. Mewes,  S. A. Mewes,  P. Morgante,  Mohammad Mostafanejad,  
 Madhubani Mukherjee,  J. W. Mullinax,  Quyen Nguyen,  Avik Kumar Ojha,  
 K. J. Oosterbaan,  Eno Paenurk,  Xiaoliang Pan,  G. Paran,  V. Parravicini,  
 Alexander C. Paul,  Suranjan K. Paul,  F. Pavosevic,  Zheng Pei,  S. Prager,  
 E. I. Proynov,  E. Ramos,  B. Rana,  A. E. Rask,  A. Rettig,  R. M. Richard,  
 F. Rob,  E. Rossomme,  T. Scheele,  M. Scheurer,  M. Schneider,  
 P. E. Schneider,  Tim K. Schramm,  N. Sergueev,  S. M. Sharada,  
 Hengyuan Shen,  W. Skomorowski,  D. W. Small,  C. J. Stein,  
 Alistair J. Sterling,  Yingli Su,  Yu-Chuan Su,  E. J. Sundstrom,  
 J. Talbot,  Zhen Tao,  J. Thirman,  Hung-Yi Tsai,  T. Tsuchimochi,  
 N. M. Tubman,  C. Utku,  S. P. Veccham,  O. Vydrov,  Rahel Weiss,  
 J. Wenzel,  Jonathan Wong,  J. Witte,  H. Wu,  Yanze Wu,  A. Yamada,  
 Chou-Hsun Yang,  Kun Yao,  S. Yeganeh,  S. R. Yost,  Qi Yu,  A. Zech,  
 F. Zeller,  Chongxiao Zhao,  Igor Ying Zhang,  Xing Zhang,  Yu Zhang,  
 D. Zuev,  A. Aspuru-Guzik,  A. T. Bell,  N. A. Besley,  K. B. Bravaya,  
 B. R. Brooks,  D. Casanova,  Jeng-Da Chai,  Hsing-Ta Chen,  S. Coriani,  
 C. J. Cramer,  A. E. DePrince, III,  R. A. DiStasio Jr.,  A. Dreuw,  
 B. D. Dunietz,  T. R. Furlani,  W. A. Goddard III,  S. Grimme,  
 S. Hammes-Schiffer,  T. Head-Gordon,  W. J. Hehre,  Chao-Ping Hsu,  
 T.-C. Jagau,  Yousung Jung,  A. Klamt,  Jing Kong,  D. S. Lambrecht,  
 Xiangyuan Li,  WanZhen Liang,  N. J. Mayhall,  C. W. McCurdy,  J. B. Neaton,  
 T. Neudecker,  C. Ochsenfeld,  J. A. Parkhill,  R. Peverati,  
 V. A. Rassolov,  Haisheng Ren,  Yihan Shao,  L. V. Slipchenko,  
 R. P. Steele,  J. E. Subotnik,  A. J. W. Thom,  A. Tkatchenko,  
 D. G. Truhlar,  T. Van Voorhis,  Fan Wang,  T. A. Wesolowski,  K. B. Whaley,  
 H. L. Woodcock III,  P. M. Zimmerman,  S. Faraji,  P. M. W. Gill,  
 M. Head-Gordon,  J. M. Herbert,  A. I. Krylov

 Contributors to earlier versions of Q-Chem not listed above: 
 R. D. Adamson,  B. Austin,  R. Baer,  J. Baker,  G. J. O. Beran,  
 K. Brandhorst,  S. T. Brown,  E. F. C. Byrd,  Arup K. Chakraborty,  
 G. K. L. Chan,  Chun-Min Chang,  Yunqing Chen,  C.-L. Cheng,  
 Siu Hung Chien,  D. M. Chipman,  D. L. Crittenden,  H. Dachsel,  
 R. J. Doerksen,  A. D. Dutoi,  R. G. Edgar,  J. Fosso-Tande,  
 L. Fusti-Molnar,  D. Ghosh,  A. Ghysels,  A. Golubeva-Zadorozhnaya,  
 J. Gonthier,  M. S. Gordon,  S. R. Gwaltney,  G. Hawkins,  J. E. Herr,  
 A. Heyden,  S. Hirata,  E. G. Hohenstein,  G. Kedziora,  F. J. Keil,  
 C. Kelley,  Jihan Kim,  R. A. King,  R. Z. Khaliullin,  P. P. Korambath,  
 W. Kurlancheek,  A. Laurent,  A. M. Lee,  M. S. Lee,  S. V. Levchenko,  
 Ching Yeh Lin,  D. Liotard,  E. Livshits,  R. C. Lochan,  I. Lotan,  
 L. A. Martinez-Martinez,  P. E. Maslen,  N. Nair,  D. P. O'Neill,  
 D. Neuhauser,  E. Neuscamman,  C. M. Oana,  R. Olivares-Amaya,  R. Olson,  
 T. M. Perrine,  B. Peters,  P. A. Pieniazek,  A. Prociuk,  Y. M. Rhee,  
 J. Ritchie,  M. A. Rohrdanz,  E. Rosta,  N. J. Russ,  H. F. Schaefer III,  
 M. W. Schmidt,  N. E. Schultz,  S. Sharma,  N. Shenvi,  C. D. Sherrill,  
 A. C. Simmonett,  A. Sodt,  T. Stein,  D. Stuck,  K. S. Thanthiriwatte,  
 V. Vanovschi,  L. Vogt,  Tao Wang,  A. Warshel,  M. A. Watson,  
 C. F. Williams,  Q. Wu,  X. Xu,  Jun Yang,  W. Zhang,  Yan Zhao

   Please cite Q-Chem as follows:
  "Software for the frontiers of quantum chemistry:
   An overview of developments in the Q-Chem 5 package"
   J. Chem. Phys. 155, 084801 (2021)
   https://doi.org/10.1063/5.0055522 (open access)

 Q-Chem 6.2.2 for Intel X86 EM64T Linux

 Parts of Q-Chem use Armadillo 9.900.5 (Nocturnal Misbehaviour).
 http://arma.sourceforge.net/

 Q-Chem begins on Mon Apr 21 01:19:53 2025  

 Host: 
0

     Scratch files written to /data/scratch/CH3SH_water_Cs_eda2_op1_wB97X-V_tzvppd20250421011951//
 Nov1724 |scratch|qcdevops|jenkins|workspace|build_RNUM -1
 Processing $rem in /opt/qchem/6.2.0/config/preferences:
 Processing $rem in /home/ymao/.qchemrc:

 Q-Chem warning in module libgen/rem_setup.C, line 3433:

 Neither GIA nor STOLL is specified by user. Use STOLL as the default


 Checking the input file for inconsistencies... 	...done.

--------------------------------------------------------------
User input:
--------------------------------------------------------------
$molecule
0 1
--
0 1
S    1.11944    0.92434    0.00000
H    -0.22866   0.93171    0.00000
C    1.30996    -0.88127   0.00000
H    2.38847    -1.09062   0.00000
H    0.86268    -1.32956   0.89720
H    0.86268    -1.32956   -0.89720
--
0 1
O    -2.17482   -0.35392   0.00000
H    -2.75709   -0.36743   0.76674
H    -2.75709   -0.36743   -0.76674
$end

$rem
JOBTYPE  EDA
EDA2  1
METHOD  WB97X-V
BASIS  DEF2-TZVPPD
SYMMETRY  FALSE
SYM_IGNORE  TRUE
MEM_TOTAL  8000
MEM_STATIC  2000
BASIS_LIN_DEP_THRESH  6
THRESH  14
SCF_CONVERGENCE  8
GEN_SCFMAN  TRUE
MAXSCF  200
FD_MAT_VEC_PROD  FALSE
XC_GRID  000099000590
NL_GRID  1
SCF_GUESS  FRAGMO
FRZ_ORTHO_DECOMP  -1
EDA_CLS_DISP  TRUE
EDA_POL_A  TRUE
EDA_VCT_A  TRUE
EDA_SAVE_COVP  TRUE
MAKE_CUBE_FILES  TRUE
PLOTS  TRUE
$end

$plots
grid_points 100 100 100
$end
--------------------------------------------------------------
 ----------------------------------------------------------------
             Standard Nuclear Orientation (Angstroms)
    I     Atom           X                Y                Z
 ----------------------------------------------------------------
    1      S       1.1194400000     0.9243400000     0.0000000000
    2      H      -0.2286600000     0.9317100000     0.0000000000
    3      C       1.3099600000    -0.8812700000     0.0000000000
    4      H       2.3884700000    -1.0906200000     0.0000000000
    5      H       0.8626800000    -1.3295600000     0.8972000000
    6      H       0.8626800000    -1.3295600000    -0.8972000000
    7      O      -2.1748200000    -0.3539200000     0.0000000000
    8      H      -2.7570900000    -0.3674300000     0.7667400000
    9      H      -2.7570900000    -0.3674300000    -0.7667400000
 ----------------------------------------------------------------
 Nuclear Repulsion Energy =         103.70678174 hartrees
 There are       18 alpha and       18 beta electrons
 Requested basis set is def2-TZVPPD
 There are 86 shells and 230 basis functions

 Total QAlloc Memory Limit   8000 MB
 Mega-Array Size      1956 MB
 MEM_STATIC part      2000 MB


                       Distance Matrix (Angstroms)
             S (  1)   H (  2)   C (  3)   H (  4)   H (  5)   H (  6)
   H (  2)  1.348120
   C (  3)  1.815634  2.377866
   H (  4)  2.381281  3.307444  1.098641
   H (  5)  2.439459  2.666333  1.098176  1.786084
   H (  6)  2.439459  2.666333  1.098176  1.786084  1.794400
   O (  7)  3.533567  2.332463  3.524456  4.622374  3.314098  3.314098
   H (  8)  4.157408  2.944251  4.170470  5.252398  3.747726  4.098430
   H (  9)  4.157408  2.944251  4.170470  5.252398  4.098430  3.747726
             O (  7)   H (  8)
   H (  8)  0.962866
   H (  9)  0.962866  1.533480
 
 A cutoff of  1.0D-14 yielded   3566 shell pairs
 There are     25730 function pairs (     31688 Cartesian)
 Smallest overlap matrix eigenvalue = 3.50E-05

 Scale SEOQF with 1.000000e-01/1.000000e-01/1.000000e-01

 Standard Electronic Orientation quadrupole field applied
 Nucleus-field energy     =     0.0000000047 hartrees

 -----------------------------------------------------------------------
  General SCF calculation program by
  Eric Jon Sundstrom, Paul Horn, Yuezhi Mao, Dmitri Zuev, Alec White,
  David Stuck, Shaama M.S., Shane Yost, Joonho Lee, David Small,
  Daniel Levine, Susi Lehtola, Hugh Burton, Evgeny Epifanovsky,
  Bang C. Huynh
 -----------------------------------------------------------------------
================================================================
                 ALMO-EDA with the EDA2 driver                  
================================================================
 The second-generation ALMO-EDA (for DFT):                      
 P. R. Horn, Y. Mao and M. Head-Gordon, PCCP, 18, 23067 (2016)  
 Y. Mao et al. Annu. Rev. Phys. Chem. 72, 641 (2021)            
 Decomposition of the frozen energy:                            
 P. R. Horn, Y. Mao and M. Head-Gordon, JCP, 144, 114107 (2016) 
 FERF model for polarization:                                   
 P. R. Horn and M. Head-Gordon, JCP, 143, 114111 (2015)         
================================================================
 Using eda2 option set 1
 Option set summary: Frozen orbital wavefunction, initial wavefunction decomposition, and nDQ polarization.
--------------------------------
Printing EDA Options
--------------------------------
eda_child_super_basis      0
fragmo_guess_mode          0
child_mp                   1
child_mp_orders            232
cls_elec                   1
cls_disp                   1
scfmi_mode                 1
scfmi_occs                 0
scfmi_virts                0
frz_relax                  0
frz_relax_method           0
dc_pen_start               0
dc_pen_conv                0
dc_pen_increment           0
dc_pen_steps               0
dc_pen_thresh_factor       0
dc_pen_pre_newton_thresh   0
frz_ortho_decomp           0
frz_ortho_decomp_conv      6
plot_mo_ortho_frz          0
frgm_method                2
scfmi_freeze_ss            0
separate_rehyb             0
plot_diff_den              0
eda_nocv                   0
eda_vct_relax              1
disp_free_x                0
disp_free_c                0
eda_bsse                   0
eda_pct_a                  0
eda_covp                   0
eda_pol_a                  1
eda_vct_a                  1
has_sol                    0
print_level                1
--------------------------------
 Attempting to make child job directory: /data/scratch/CH3SH_water_Cs_eda2_op1_wB97X-V_tzvppd20250421011951//Frg1/
 Attempting to make child job directory: /data/scratch/CH3SH_water_Cs_eda2_op1_wB97X-V_tzvppd20250421011951//Frg2/
 Creating input file /data/scratch/CH3SH_water_Cs_eda2_op1_wB97X-V_tzvppd20250421011951/Frg1.input
 using default PutDataFrgm: nothing
 calling putenv with: QCSCRATCH=/data/scratch/CH3SH_water_Cs_eda2_op1_wB97X-V_tzvppd20250421011951/ 
 Spawning Job For Fragment 0
 Done Job For Fragment 0
 calling putenv with: QCSCRATCH=/data/scratch 
 calling putenv with: QCTHREADS=16 
 Creating input file /data/scratch/CH3SH_water_Cs_eda2_op1_wB97X-V_tzvppd20250421011951/Frg2.input
 using default PutDataFrgm: nothing
 calling putenv with: QCSCRATCH=/data/scratch/CH3SH_water_Cs_eda2_op1_wB97X-V_tzvppd20250421011951/ 
 Spawning Job For Fragment 1
 Done Job For Fragment 1
 calling putenv with: QCSCRATCH=/data/scratch 
 calling putenv with: QCTHREADS=16 
Doing General SCFMI
 Exchange:     0.1670 Hartree-Fock + 1.0000 wB97X-V + LR-HF
 Correlation:  1.0000 wB97X-V
 Using Euler-Maclaurin-Lebedev (99,590) quadrature formula
 Nonlocal Correlation:  VV10 with C = 0.0100 and b = 6.00 and scale = 1.00000
 Grid used for NLC:  SG-1 standard quadrature
performing fock build before subrot guess so that all methods have access
Printing subrot_rss_gen Method Specification:
Occupied Subspace Method is 0
Virtual Subspace Method is 0
Energy of the unrelaxed supersystem initial determinant -515.095320952329
write pseudocanon occs and virts to disk
write pseudocanon orbital energies to disk
 Exchange:     0.1670 Hartree-Fock + 1.0000 wB97X-V + LR-HF
 Correlation:  1.0000 wB97X-V
 Using Euler-Maclaurin-Lebedev (99,590) quadrature formula
 Nonlocal Correlation:  VV10 with C = 0.0100 and b = 6.00 and scale = 1.00000
 Grid used for NLC:  SG-1 standard quadrature
 Long-range K will be added via erf
 Coulomb attenuation parameter = 0.3 bohr**(-1)
 Nonlocal correlation = 0.147655880027
 Hartree-Fock
Doing General SCFMI
 Exchange:     0.1670 Hartree-Fock + 1.0000 wB97X-V + LR-HF
 Correlation:  1.0000 wB97X-V
 Using Euler-Maclaurin-Lebedev (99,590) quadrature formula
 Nonlocal Correlation:  VV10 with C = 0.0100 and b = 6.00 and scale = 1.00000
 Grid used for NLC:  SG-1 standard quadrature
performing fock build at end of subrot_r(subrot) constructor so that all methods have access
<S^2> of initial wavefunction before polarization iterations 0.0000000000
Beginning iterations for the determination of the polarized wavefunction
Energy prior to optimization (guess energy) = -515.095320952328
Begin Timing: Total SCF Calculation
begin iterations for algorithm: DIIS         
the SCF tolerance is set to 1.00e-08
    1    -515.0953209523      1.97e-04     00000 
    2    -515.0959977728      8.38e-05     00000 
    3    -515.0960692810      3.93e-05     00000 
    4    -515.0960860197      1.38e-05     00000 
    5    -515.0960882575      5.02e-06     00000 
    6    -515.0960887231      1.33e-06     00000 
    7    -515.0960887661      4.73e-07     00000 
    8    -515.0960887692      1.36e-07     00000 
    9    -515.0960887694      3.74e-08     00000 
   10    -515.0960887695      1.19e-08     00000 
   11    -515.0960887695      2.76e-09     00000 Convergence criterion met
write pseudocanon occs and virts to disk
write pseudocanon orbital energies to disk
Timing for Total SCF: 23.00s (wall), 381.51s (cpu)
<S^2> of polarized wavefunction after polarization iterations 0.0000000000
Doing General SCFMI
 Exchange:     0.1670 Hartree-Fock + 1.0000 wB97X-V + LR-HF
 Correlation:  1.0000 wB97X-V
 Using Euler-Maclaurin-Lebedev (99,590) quadrature formula
 Nonlocal Correlation:  VV10 with C = 0.0100 and b = 6.00 and scale = 1.00000
 Grid used for NLC:  SG-1 standard quadrature
performing fock build at end of subrot_r(subrot) constructor so that all methods have access
GDM subspace size: 20
    1       0.0009300785      2.35e-03     00000 Preconditoned Steepest Descent
    2       0.0083598616      7.02e-03     00000 LineSearch Step
    3       0.0000000004      1.62e-06     00000 BFGS Step
    4       0.0000000001      6.52e-07     00000 BFGS Step
    5       0.0000000003      1.33e-06     00000 LineSearch Step
    6       0.0000000000      2.14e-07     00000 BFGS Step
    7       0.0000000000      1.30e-08     00000 BFGS Step
GDM subspace size: 20
    1       0.0003834088      3.92e-03     00000 Preconditoned Steepest Descent
    2       0.0034488049      1.17e-02     00000 LineSearch Step
    3       0.0000000000      1.36e-06     00000 BFGS Step
    4       0.0000000000      4.08e-07     00000 BFGS Step
    5       0.0000000000      9.76e-07     00000 LineSearch Step
    6       0.0000000000      1.09e-07     00000 BFGS Step
    7       0.0000000000      3.54e-09     00000 BFGS Step
=========Fragment P Connection POL Analysis Result=========
P Connection Polarization Energy (kJ/mol)  : -2.015904
P Connection On-Fragment Charge Shift (me-): +1.234783
First Principle Polarization Energy (kJ/mol)  : -2.015904
First Principle On-Fragment Charge Shift (me-): +1.234783
___________________________________________________________
=========Fragment-wise P Connection POL Analysis=========
[Fragment 1]
E_1 (kJ/mol): -1.337435, Q_1 (me-): +0.860444
[Fragment 2]
E_2 (kJ/mol): -0.678469, Q_2 (me-): +0.374339
_________________________________________________________
==============================================================
           Fragment P Connection POL COVP Analysis            
==============================================================
Using COVP significance threshold 0.500 (kJ/mol)
--------------------------------------------------------------
 D  A  dE (kJ/mol)  dE %    dQ (me-)  dQ %    idx(D)  idx(A)
 1  1   -0.9626     47.75   0.6594    53.40     1       2   
 2  2   -0.5256     26.07   0.2914    23.60     3       4   
______________________________________________________________
relaxing scfmi constraint to allow all rotations in the entire AO span
Doing General SCFMI
 Exchange:     0.1670 Hartree-Fock + 1.0000 wB97X-V + LR-HF
 Correlation:  1.0000 wB97X-V
 Using Euler-Maclaurin-Lebedev (99,590) quadrature formula
 Nonlocal Correlation:  VV10 with C = 0.0100 and b = 6.00 and scale = 1.00000
 Grid used for NLC:  SG-1 standard quadrature
performing fock build at end of subrot_r(subrot) constructor so that all methods have access
<S^2> of polarized wavefunction before ct-allowed iterations 0.0000000000
Beginning iterations for the determination of the CT-Allowed wavefunction
Energy prior to optimization (guess energy) = -515.096088769463
Begin Timing: Total SCF Calculation
begin iterations for algorithm: DIIS         
the SCF tolerance is set to 1.00e-08
    1    -515.0960887695      1.79e-04     00000 
    2    -515.0969738128      2.45e-05     00000 
    3    -515.0970156355      7.43e-06     00000 
    4    -515.0970172045      6.00e-06     00000 
    5    -515.0970178791      3.62e-07     00000 
    6    -515.0970178864      1.15e-07     00000 
    7    -515.0970178869      2.71e-08     00000 
    8    -515.0970178870      7.15e-09     00000 Convergence criterion met
write pseudocanon occs and virts to disk
write pseudocanon orbital energies to disk
Timing for Total SCF: 16.00s (wall), 258.52s (cpu)
<S^2> of ct_allowed wavefunction after ct-allowed iterations 0.0000000000
GDM subspace size: 20
    1       0.0012992475      1.65e-03     00000 Preconditoned Steepest Descent
    2       0.0116689626      4.94e-03     00000 LineSearch Step
    3       0.0000000014      1.72e-06     00000 BFGS Step
    4       0.0000000002      6.14e-07     00000 BFGS Step
    5       0.0000000009      1.35e-06     00000 LineSearch Step
    6       0.0000000000      1.87e-07     00000 BFGS Step
    7       0.0000000000      8.74e-09     00000 BFGS Step

==============Non-Perturbative CT Analysis Result===============
Non-Perturbative CT Energy (kJ/mol)   : -2.439398
Non-Perturbative Charge Transfer (me-): +1.299247
First Principle CT Energy (kJ/mol)    : -2.439398
First Principle Charge Transfer (me-) : +1.299247
_______________________________________________________________
========Fragment-wise Non-Perturbative CT Analysis=======
---Fragment-wise CT energies (row to col, kJ/mol)
			1			2
	1   -0.019250   -0.299025
	2   -2.115303   -0.005819
---Fragment-wise charge transfer (row to col, me-)
			1			2
	1   -0.000033    0.127146
	2    1.338551   -0.166416
_________________________________________________________
==============================================================
              Non-Perturbative CT COVP Analysis               
==============================================================
Using COVP significance threshold 0.500 (kJ/mol)
--------------------------------------------------------------
 D  A  dE (kJ/mol)  dE %    dQ (me-)  dQ %    idx(D)  idx(A)
 2  1   -1.9420     79.61   1.2578    96.81     5       6   
______________________________________________________________
Done with restricted VCTA
Beginning cube_generation (with a 'new' $plots section):
The cube files of the following orbitals are generated: 
 1 2 3 4 5 6
Grid information in Angstroms:
 x:        100  min =  -5.757090 max =   5.388470
 y:        100  min =  -4.329560 max =   3.931710
 z:        100  min =  -3.897200 max =   3.897200
 Created directory /data/scratch/CH3SH_water_Cs_eda2_op1_wB97X-V_tzvppd20250421011951/plots

================================
        Results of EDA2         
================================
Basic EDA Quantities
--------------------
Fragment Energies (Ha):
1   -438.6561733716
2    -76.4370868851
--------------------
  E_prp (kJ/mol) = 0.0000
  E_frz (kJ/mol) = -5.4104
  E_pol (kJ/mol) = -2.0159
  E_vct (kJ/mol) = -2.4394
  E_int (kJ/mol) = -9.8658
--------------------


Decomposition of frozen interaction energy
--------------------
  --------------------
  Classical Frozen Decomposition:
  --------------------
     E_cls_elec  (CLS ELEC)  (kJ/mol) = -13.5634
     E_mod_pauli (MOD PAULI) (kJ/mol) = 15.0929 (FRZ - CLS ELEC - CLS DISP)
     E_cls_disp  (CLS DISP)  (kJ/mol) = -6.9399
  --------------------
--------------------

Simplified EDA Summary (kJ/mol)
--------------------
 PREPARATION      0.0000
 FROZEN           -5.4104 (ELEC + PAULI + DISP)
[ELEC + PAULI = 1.5295, DISP = -6.9399]
 POLARIZATION    -2.0159
 CHARGE TRANSFER -2.4394
 TOTAL           -9.8658     (PRP + FRZ + POL + CT)
--------------------
 
 --------------------------------------------------------------
 
                    Orbital Energies (a.u.)
 --------------------------------------------------------------
 
 Alpha MOs
 -- Occupied --
-88.8375 -19.2343 -10.2856  -8.0165  -5.9728  -5.9690  -5.9630  -1.1587
 -0.8947  -0.7510  -0.6624  -0.5502  -0.5236  -0.5165  -0.4777  -0.4462
 -0.4149  -0.3232
 -- Virtual --
  0.0409   0.0674   0.0761   0.0818   0.1017   0.1062   0.1201   0.1294
  0.1468   0.1637   0.1731   0.1768   0.1895   0.1931   0.2308   0.2353
  0.2431   0.2475   0.2575   0.2590   0.2714   0.2865   0.2952   0.3083
  0.3110   0.3230   0.3304   0.3398   0.3420   0.3503   0.3727   0.3733
  0.3840   0.3965   0.4025   0.4203   0.4222   0.4326   0.4441   0.4565
  0.4618   0.4762   0.4971   0.5021   0.5145   0.5393   0.5716   0.5848
  0.5898   0.6041   0.6106   0.6150   0.6329   0.6395   0.6523   0.6853
  0.7247   0.7377   0.7728   0.7827   0.7854   0.7916   0.7996   0.8262
  0.8377   0.8531   0.8737   0.9229   0.9393   0.9663   1.0089   1.0212
  1.1194   1.1270   1.1318   1.1542   1.1723   1.1781   1.2081   1.2154
  1.2636   1.2828   1.2859   1.3070   1.3254   1.3578   1.3953   1.4017
  1.4614   1.4669   1.5454   1.5656   1.6067   1.6809   1.7005   1.7430
  1.7456   1.8069   1.8403   1.8494   1.9223   1.9425   1.9573   1.9807
  1.9824   1.9874   2.0554   2.0757   2.1184   2.1250   2.1475   2.1720
  2.2704   2.2941   2.3152   2.4584   2.4592   2.6576   2.6981   2.7188
  2.8076   2.8502   2.8747   2.9249   2.9534   2.9786   2.9826   3.0970
  3.1190   3.1536   3.1782   3.2284   3.2504   3.2584   3.2960   3.3560
  3.4299   3.4550   3.4658   3.4800   3.4909   3.4934   3.5208   3.5715
  3.5823   3.6338   3.6900   3.7072   3.7608   3.7652   3.8574   3.8924
  3.9254   3.9350   3.9452   3.9889   4.0812   4.1054   4.1290   4.1674
  4.1704   4.1866   4.1903   4.2345   4.2566   4.2683   4.3020   4.3126
  4.3602   4.3998   4.4112   4.4760   4.7305   4.7468   4.7594   4.7886
  4.7925   4.8909   5.0187   5.1893   5.2171   5.2247   5.2682   5.3382
  5.3736   5.4636   5.4706   5.6997   5.7207   5.7599   6.2645   6.5467
  6.5759   6.6676   6.7004   6.7823   6.8752   6.9607   6.9947   7.0328
  7.0566   7.0928   7.5124   7.5773   7.6308   7.8914   9.1544   9.5240
  9.6002  20.5136  23.5798  43.9678
 --------------------------------------------------------------
 
          Ground-State Mulliken Net Atomic Charges

     Atom                 Charge (a.u.)
  ----------------------------------------
      1 S                    -0.297078
      2 H                     0.144126
      3 C                    -0.068914
      4 H                     0.074340
      5 H                     0.067700
      6 H                     0.067700
      7 O                    -0.333064
      8 H                     0.172594
      9 H                     0.172594
  ----------------------------------------
  Sum of atomic charges =     0.000000

 -----------------------------------------------------------------
                    Cartesian Multipole Moments
 -----------------------------------------------------------------
    Charge (ESU x 10^10)
                -0.0000
    Dipole Moment (Debye)
         X      -2.9935      Y      -1.6184      Z      -0.0000
       Tot       3.4029
    Quadrupole Moments (Debye-Ang)
        XX     -18.4041     XY      -2.1750     YY     -29.5466
        XZ      -0.0000     YZ      -0.0000     ZZ     -27.2546
    Octopole Moments (Debye-Ang^2)
       XXX     -58.0183    XXY     -10.9622    XYY      -9.9689
       YYY      -8.4708    XXZ      -0.0000    XYZ      -0.0000
       YYZ      -0.0000    XZZ     -18.2884    YZZ      -7.1846
       ZZZ      -0.0000
    Hexadecapole Moments (Debye-Ang^3)
      XXXX    -303.2274   XXXY     -22.3262   XXYY    -104.2127
      XYYY     -32.6453   YYYY    -158.7240   XXXZ      -0.0000
      XXYZ      -0.0000   XYYZ      -0.0000   YYYZ      -0.0000
      XXZZ     -63.7418   XYZZ      -9.6599   YYZZ     -35.5081
      XZZZ       0.0000   YZZZ       0.0000   ZZZZ     -45.2214
 -----------------------------------------------------------------
 Total job time:  157.38s(wall), 1280.03s(cpu) 
 Mon Apr 21 01:22:30 2025

        *************************************************************
        *                                                           *
        *  Thank you very much for using Q-Chem.  Have a nice day.  *
        *                                                           *
        *************************************************************


