                  Welcome to Q-Chem
     A Quantum Leap Into The Future Of Chemistry


 Q-Chem 6.2 (devel), Q-Chem, Inc., Pleasanton, CA (2024)

 E. Epifanovsky,  A. T. B. Gilbert,  Xintian Feng,  Joonho Lee,  Yuezhi Mao,  
 N. Mardirossian,  P. Pokhilko,  A. White,  M. Wormit,  M. P. Coons,  
 A. L. Dempwolff,  Zhengting Gan,  D. Hait,  P. R. Horn,  L. D. Jacobson,  
 I. Kaliman,  J. Kussmann,  A. W. Lange,  Ka Un Lao,  D. S. Levine,  Jie Liu,  
 S. C. McKenzie,  A. F. Morrison,  K. D. Nanda,  F. Plasser,  D. R. Rehn,  
 M. L. Vidal,  Zhi-Qiang You,  Ying Zhu,  Huseyin Aksu,  B. Alam,  
 B. Albrecht,  A. Aldossary,  E. Alguire,  J. H. Andersen,  
 J. E. Arias-Martinez,  V. Athavale,  D. Barton,  K. Begam,  A. Behn,  
 N. Bellonzi,  Y. A. Bernard,  E. J. Berquist,  H. Burton,  A. Carreras,  
 K. Carter-Fenk,  Mathew Chow,  Romit Chakraborty,  Chandrima Chakravarty,  
 Junhan Chen,  A. D. Chien,  K. D. Closser,  V. Cofer-Shabica,  L. Cunha,  
 S. Dasgupta,  Jia Deng,  Joseph Dickinson,  M. de Wergifosse,  
 M. Diedenhofen,  Hainam Do,  Wenjie Dou,  S. Ehlert,  Po-Tung Fang,  
 S. Fatehi,  Qingguo Feng,  Jonathan Fetherolf,  T. Friedhoff,  
 Thomas Froitzheim,  Sarai Folkestad,  B. Ganoe,  J. Gayvert,  Qinghui Ge,  
 G. Gidofalvi,  M. Gimferrer,  M. Goldey,  Montgomery Gray,  J. Gomes,  
 C. Gonzalez-Espinoza,  S. Gulania,  A. Gunina,  J. A. Gyamfi,  
 M. W. D. Hanson-Heine,  P. H. P. Harbach,  A. W. Hauser,  M. F. Herbst,  
 M. Hernandez Vera,  M. Hodecker,  Z. C. Holden,  S. Houck,  Xunkun Huang,  
 Kerwin Hui,  B. C. Huynh,  K. Ikeda,  M. Ivanov,  Nayanthara K. Jayadev,  
 Hyunjun Ji,  Zuxin Jin,  Hanjie Jiang,  Subrata Jana,  B. Kaduk,  
 S. Kaehler,  R. Kang,  K. Khistyaev,  Jaehoon Kim,  Yongbin Kim,  
 P. Klunzinger,  Z. Koczor-Benda,  Joong Hoon Koh,  D. Kosenkov,  
 Saikiran Kotaru,  L. Koulias,  T. Kowalczyk,  C. M. Krauter,  K. Kue,  
 A. Kunitsa,  T. Kus,  A. Landau,  K. V. Lawler,  D. Lefrancois,  S. Lehtola,  
 Rain Li,  Shaozhi Li,  Tao E. Li,  Yi-Pei Li,  Jiashu Liang,  M. Liebenthal,  
 Hung-Hsuan Lin,  You-Sheng Lin,  Fenglai Liu,  Kuan-Yu Liu,  Xiao Liu,  
 M. Loipersberger,  A. Luenser,  C. Malbon,  Aniket Mandal,  Manisha,  
 A. Manjanath,  P. Manohar,  E. Mansoor,  S. F. Manzer,  Shan-Ping Mao,  
 A. V. Marenich,  T. Markovich,  S. Mason,  F. Matz,  S. A. Maurer,  
 Samuel May,  Alexandra McIsaac,  P. F. McLaughlin,  M. F. S. J. Menger,  
 J.-M. Mewes,  S. A. Mewes,  P. Morgante,  Mohammad Mostafanejad,  
 Madhubani Mukherjee,  J. W. Mullinax,  Quyen Nguyen,  Avik Kumar Ojha,  
 K. J. Oosterbaan,  Eno Paenurk,  Xiaoliang Pan,  G. Paran,  V. Parravicini,  
 Alexander C. Paul,  Suranjan K. Paul,  F. Pavosevic,  Zheng Pei,  S. Prager,  
 E. I. Proynov,  E. Ramos,  B. Rana,  A. E. Rask,  A. Rettig,  R. M. Richard,  
 F. Rob,  E. Rossomme,  T. Scheele,  M. Scheurer,  M. Schneider,  
 P. E. Schneider,  Tim K. Schramm,  N. Sergueev,  S. M. Sharada,  
 Hengyuan Shen,  W. Skomorowski,  D. W. Small,  C. J. Stein,  
 Alistair J. Sterling,  Yingli Su,  Yu-Chuan Su,  E. J. Sundstrom,  
 J. Talbot,  Zhen Tao,  J. Thirman,  Hung-Yi Tsai,  T. Tsuchimochi,  
 N. M. Tubman,  C. Utku,  S. P. Veccham,  O. Vydrov,  Rahel Weiss,  
 J. Wenzel,  Jonathan Wong,  J. Witte,  H. Wu,  Yanze Wu,  A. Yamada,  
 Chou-Hsun Yang,  Kun Yao,  S. Yeganeh,  S. R. Yost,  Qi Yu,  A. Zech,  
 F. Zeller,  Chongxiao Zhao,  Igor Ying Zhang,  Xing Zhang,  Yu Zhang,  
 D. Zuev,  A. Aspuru-Guzik,  A. T. Bell,  N. A. Besley,  K. B. Bravaya,  
 B. R. Brooks,  D. Casanova,  Jeng-Da Chai,  Hsing-Ta Chen,  S. Coriani,  
 C. J. Cramer,  A. E. DePrince, III,  R. A. DiStasio Jr.,  A. Dreuw,  
 B. D. Dunietz,  T. R. Furlani,  W. A. Goddard III,  S. Grimme,  
 S. Hammes-Schiffer,  T. Head-Gordon,  W. J. Hehre,  Chao-Ping Hsu,  
 T.-C. Jagau,  Yousung Jung,  A. Klamt,  Jing Kong,  D. S. Lambrecht,  
 Xiangyuan Li,  WanZhen Liang,  N. J. Mayhall,  C. W. McCurdy,  J. B. Neaton,  
 T. Neudecker,  C. Ochsenfeld,  J. A. Parkhill,  R. Peverati,  
 V. A. Rassolov,  Haisheng Ren,  Yihan Shao,  L. V. Slipchenko,  
 R. P. Steele,  J. E. Subotnik,  A. J. W. Thom,  A. Tkatchenko,  
 D. G. Truhlar,  T. Van Voorhis,  Fan Wang,  T. A. Wesolowski,  K. B. Whaley,  
 H. L. Woodcock III,  P. M. Zimmerman,  S. Faraji,  P. M. W. Gill,  
 M. Head-Gordon,  J. M. Herbert,  A. I. Krylov

 Contributors to earlier versions of Q-Chem not listed above: 
 R. D. Adamson,  B. Austin,  R. Baer,  J. Baker,  G. J. O. Beran,  
 K. Brandhorst,  S. T. Brown,  E. F. C. Byrd,  Arup K. Chakraborty,  
 G. K. L. Chan,  Chun-Min Chang,  Yunqing Chen,  C.-L. Cheng,  
 Siu Hung Chien,  D. M. Chipman,  D. L. Crittenden,  H. Dachsel,  
 R. J. Doerksen,  A. D. Dutoi,  R. G. Edgar,  J. Fosso-Tande,  
 L. Fusti-Molnar,  D. Ghosh,  A. Ghysels,  A. Golubeva-Zadorozhnaya,  
 J. Gonthier,  M. S. Gordon,  S. R. Gwaltney,  G. Hawkins,  J. E. Herr,  
 A. Heyden,  S. Hirata,  E. G. Hohenstein,  G. Kedziora,  F. J. Keil,  
 C. Kelley,  Jihan Kim,  R. A. King,  R. Z. Khaliullin,  P. P. Korambath,  
 W. Kurlancheek,  A. Laurent,  A. M. Lee,  M. S. Lee,  S. V. Levchenko,  
 Ching Yeh Lin,  D. Liotard,  E. Livshits,  R. C. Lochan,  I. Lotan,  
 L. A. Martinez-Martinez,  P. E. Maslen,  N. Nair,  D. P. O'Neill,  
 D. Neuhauser,  E. Neuscamman,  C. M. Oana,  R. Olivares-Amaya,  R. Olson,  
 T. M. Perrine,  B. Peters,  P. A. Pieniazek,  A. Prociuk,  Y. M. Rhee,  
 J. Ritchie,  M. A. Rohrdanz,  E. Rosta,  N. J. Russ,  H. F. Schaefer III,  
 M. W. Schmidt,  N. E. Schultz,  S. Sharma,  N. Shenvi,  C. D. Sherrill,  
 A. C. Simmonett,  A. Sodt,  T. Stein,  D. Stuck,  K. S. Thanthiriwatte,  
 V. Vanovschi,  L. Vogt,  Tao Wang,  A. Warshel,  M. A. Watson,  
 C. F. Williams,  Q. Wu,  X. Xu,  Jun Yang,  W. Zhang,  Yan Zhao

   Please cite Q-Chem as follows:
  "Software for the frontiers of quantum chemistry:
   An overview of developments in the Q-Chem 5 package"
   J. Chem. Phys. 155, 084801 (2021)
   https://doi.org/10.1063/5.0055522 (open access)

 Q-Chem 6.2.0 for Intel X86 EM64T Linux

 Parts of Q-Chem use Armadillo 9.900.5 (Nocturnal Misbehaviour).
 http://arma.sourceforge.net/

 Q-Chem begins on Thu May 30 09:44:48 2024  

 Host: 
0

     Scratch files written to /data/scratch/qchem267131//
 Processing $rem in /home/ymao/my_qchem/qchem_ymao_quick_fix/config/preferences:
 Processing $rem in /home/ymao/.qchemrc:

 Checking the input file for inconsistencies... 	...done.

--------------------------------------------------------------
User input:
--------------------------------------------------------------
$molecule
0 1
Si      0.0001887359     0.0003470093     0.3792872377
C       1.6089105553    -0.7747831455    -0.2261681341
C      -0.1335670331     1.7811480953    -0.2259729615
C      -1.4751140863    -1.0059887548    -0.2261190550
H      -0.0000730053     0.0001833530     1.8795843690
H       1.6465883081    -0.7926652860    -1.3280164316
H       1.7118689047    -1.8127188795     0.1290623992
H       2.4854917124    -0.2100096094     0.1298007917
H       0.7124399537     2.3904004142     0.1305541694
H      -1.0622887210     2.2557732021     0.1293871399
H      -0.1362961602     1.8230835411    -1.3277752674
H      -1.5101884129    -1.0301005447    -1.3279447130
H      -2.4254928100    -0.5769059247     0.1298384398
H      -1.4225627227    -2.0473462151     0.1300727985
$end

$rem
BASIS  =  def2-TZVPPD
GUI  =  2
JOB_TYPE  =  SP
METHOD  =  wB97XV
SCF_CONVERGENCE  =  8
POINT_GROUP_SYMMETRY  FALSE
ESP_GRID  -1
MAKE_CUBE_FILES  TRUE
PLOTS     TRUE
GUI       2
$end

$plots
grid_points  100 100 100
$end
--------------------------------------------------------------
 ----------------------------------------------------------------
             Standard Nuclear Orientation (Angstroms)
    I     Atom           X                Y                Z
 ----------------------------------------------------------------
    1      Si      0.0001887359     0.0003470093     0.3792872377
    2      C       1.6089105553    -0.7747831455    -0.2261681341
    3      C      -0.1335670331     1.7811480953    -0.2259729615
    4      C      -1.4751140863    -1.0059887548    -0.2261190550
    5      H      -0.0000730053     0.0001833530     1.8795843690
    6      H       1.6465883081    -0.7926652860    -1.3280164316
    7      H       1.7118689047    -1.8127188795     0.1290623992
    8      H       2.4854917124    -0.2100096094     0.1298007917
    9      H       0.7124399537     2.3904004142     0.1305541694
   10      H      -1.0622887210     2.2557732021     0.1293871399
   11      H      -0.1362961602     1.8230835411    -1.3277752674
   12      H      -1.5101884129    -1.0301005447    -1.3279447130
   13      H      -2.4254928100    -0.5769059247     0.1298384398
   14      H      -1.4225627227    -2.0473462151     0.1300727985
 ----------------------------------------------------------------
 Nuclear Repulsion Energy =         174.15777409 hartrees
 There are       21 alpha and       21 beta electrons
 Requested basis set is def2-TZVPPD
 There are 125 shells and 329 basis functions

 Total QAlloc Memory Limit   2000 MB
 Mega-Array Size       188 MB
 MEM_STATIC part       192 MB


                       Distance Matrix (Angstroms)
             Si(  1)   C (  2)   C (  3)   C (  4)   H (  5)   H (  6)
   C (  2)  1.885574
   C (  3)  1.885599  3.093382
   C (  4)  1.885669  3.092679  3.093199
   H (  5)  1.500297  2.761086  2.760983  2.760818
   H (  6)  2.500877  1.102637  3.317826  3.317335  3.691721
   H (  7)  2.505927  1.101862  4.055560  3.306634  3.046586  1.779845
   H (  8)  2.506636  1.101852  3.309192  4.055448  3.046958  1.780022
   H (  9)  2.506297  3.308972  1.101829  4.055622  3.046296  3.623806
   H ( 10)  2.505645  4.055366  1.101850  3.306947  3.046174  4.330706
   H ( 11)  2.501012  3.317860  1.102603  3.318091  3.691704  3.165568
   H ( 12)  2.501540  3.317812  3.318516  1.102647  3.691907  3.165693
   H ( 13)  2.505868  4.054911  3.307559  1.101834  3.045867  4.330559
   H ( 14)  2.505869  3.306986  4.055323  1.101844  3.045759  3.622145
             H (  7)   H (  8)   H (  9)   H ( 10)   H ( 11)   H ( 12)
   H (  8)  1.779654
   H (  9)  4.320309  3.147355
   H ( 10)  4.924285  4.320513  1.779828
   H ( 11)  4.330952  3.623778  1.780148  1.779889
   H ( 12)  3.621742  4.331631  4.332104  3.622347  3.166740
   H ( 13)  4.317985  4.924671  4.318742  3.143628  3.622845  1.779972
   H ( 14)  3.143201  4.318414  4.924615  4.318175  4.331285  1.779967
             H ( 13)
   H ( 14)  1.779905
 
 A cutoff of  1.0D-12 yielded   7503 shell pairs
 There are     52349 function pairs (     64198 Cartesian)
 Smallest overlap matrix eigenvalue = 3.26E-05

 Scale SEOQF with 1.000000e-01/1.000000e-01/1.000000e-01

 Standard Electronic Orientation quadrupole field applied
 Nucleus-field energy     =     0.0000000043 hartrees
 Guess from superposition of atomic densities
 Warning:  Energy on first SCF cycle will be non-variational
 SAD guess density has 42.000000 electrons

 -----------------------------------------------------------------------
  General SCF calculation program by
  Eric Jon Sundstrom, Paul Horn, Yuezhi Mao, Dmitri Zuev, Alec White,
  David Stuck, Shaama M.S., Shane Yost, Joonho Lee, David Small,
  Daniel Levine, Susi Lehtola, Hugh Burton, Evgeny Epifanovsky,
  Bang C. Huynh
 -----------------------------------------------------------------------
 Exchange:     0.1670 Hartree-Fock + 1.0000 wB97X-V + LR-HF
 Correlation:  1.0000 wB97X-V
 Using SG-2 standard quadrature grid
 Nonlocal Correlation:  VV10 with C = 0.0100 and b = 6.00 and scale = 1.00000
 Grid used for NLC:  SG-1 standard quadrature
 using 16 threads for integral computing
 -------------------------------------------------------
 OpenMP Integral computing Module                
 Release: version 1.0, May 2013, Q-Chem Inc. Pittsburgh 
 -------------------------------------------------------
 A restricted SCF calculation will be
 performed using DIIS
 SCF converges when DIIS error is below 1.0e-08
 ---------------------------------------
  Cycle       Energy         DIIS error
 ---------------------------------------
    1    -410.3844957632      2.00e-02  
    2    -409.7659633407      2.11e-03  
    3    -409.8018611096      1.39e-03  
    4    -409.8264122517      9.17e-05  
    5    -409.8266259474      1.93e-05  
    6    -409.8266338561      5.51e-06  
    7    -409.8266344806      1.08e-06  
    8    -409.8266345097      3.24e-07  
    9    -409.8266345120      4.75e-08  
   10    -409.8266345121      8.33e-09  Convergence criterion met
 ---------------------------------------
 SCF time:   CPU 318.86s  wall 20.00s 
 SCF   energy =  -409.82663451
 Total energy =  -409.82663451
 
 --------------------------------------------------------------
 
                    Orbital Energies (a.u.)
 --------------------------------------------------------------
 
 Alpha MOs
 -- Occupied --
-66.1021 -10.2467 -10.2467 -10.2467  -5.3599  -3.7104  -3.7098  -3.7098
 -0.8434  -0.8048  -0.8048  -0.5915  -0.5270  -0.5149  -0.5148  -0.4954
 -0.4954  -0.4847  -0.4078  -0.4021  -0.4021
 -- Virtual --
  0.0626   0.0796   0.0796   0.0862   0.1249   0.1269   0.1269   0.1359
  0.1359   0.1651   0.1654   0.1654   0.1797   0.1868   0.1907   0.1907
  0.2006   0.2006   0.2024   0.2439   0.2453   0.2453   0.2548   0.2548
  0.2697   0.2900   0.2962   0.2962   0.3092   0.3219   0.3220   0.3260
  0.3344   0.3344   0.3427   0.3427   0.3467   0.3655   0.3655   0.3662
  0.3853   0.3889   0.3889   0.3897   0.3973   0.3973   0.4065   0.4317
  0.4317   0.4482   0.4482   0.4549   0.4719   0.4719   0.4857   0.4870
  0.5074   0.5075   0.5317   0.5318   0.5352   0.5353   0.5385   0.5469
  0.5520   0.5521   0.5635   0.5671   0.5671   0.6068   0.6271   0.6370
  0.6370   0.6537   0.6561   0.6690   0.6691   0.7225   0.7296   0.7297
  0.7322   0.7495   0.7496   0.7529   0.7851   0.7851   0.7874   0.8131
  0.8131   0.8217   0.8280   0.8280   0.8437   0.8548   0.8551   0.8988
  0.9156   0.9157   0.9599   0.9599   1.0040   1.0047   1.0047   1.0152
  1.1299   1.1341   1.1342   1.1455   1.1456   1.1603   1.1662   1.1663
  1.2489   1.2851   1.2852   1.2866   1.3019   1.3020   1.3147   1.3151
  1.3152   1.3515   1.3516   1.3656   1.4410   1.4614   1.4615   1.4715
  1.4715   1.4775   1.4882   1.5004   1.5004   1.5585   1.5718   1.5719
  1.6247   1.6422   1.6423   1.6569   1.6967   1.6968   1.7034   1.7034
  1.7231   1.7402   1.7572   1.7573   1.8127   1.8239   1.8387   1.8388
  1.8550   1.8552   1.8616   1.9166   1.9574   1.9576   1.9772   2.0128
  2.0128   2.1611   2.1612   2.2158   2.3451   2.3452   2.4240   2.4534
  2.5716   2.5718   2.7526   2.8654   2.8954   2.8957   2.8965   2.9304
  2.9306   2.9558   2.9635   2.9640   2.9843   2.9844   2.9944   3.0232
  3.0232   3.0449   3.0449   3.0481   3.0830   3.1215   3.1215   3.1699
  3.1699   3.1886   3.2136   3.2541   3.2544   3.2861   3.3138   3.3139
  3.3372   3.3400   3.3402   3.3827   3.4757   3.5015   3.5017   3.5403
  3.5405   3.5640   3.5878   3.5879   3.5963   3.6154   3.6156   3.6676
  3.6724   3.6725   3.6980   3.6980   3.7041   3.7439   3.7440   3.7812
  3.8253   3.8398   3.8398   3.8543   3.8544   3.9621   4.0084   4.0086
  4.0191   4.0896   4.0978   4.0980   4.1246   4.1248   4.1508   4.1587
  4.1588   4.2109   4.2469   4.2470   4.2755   4.2923   4.2923   4.2979
  4.3656   4.3658   4.4038   4.4039   4.4039   4.4275   4.4278   4.4305
  4.4733   4.4781   4.4782   4.6770   4.6771   4.6971   4.7130   4.7130
  4.7274   4.7352   4.8050   4.8180   4.8180   4.9769   4.9771   5.1438
  5.1624   5.1628   5.1893   5.1896   5.2122   5.2309   5.2311   5.2733
  5.2841   5.2973   5.2975   5.3445   5.3794   5.3796   5.4420   5.4554
  5.4555   5.5040   5.5044   5.5417   5.5727   5.5852   5.5860   5.7841
  5.7928   5.7931   5.8116   5.8221   5.8223   6.8827   6.8829   6.9988
 12.3272  23.6263  23.6301  23.6305
 --------------------------------------------------------------
 
          Ground-State Mulliken Net Atomic Charges

     Atom                 Charge (a.u.)
  ----------------------------------------
      1 Si                    0.195631
      2 C                    -0.223818
      3 C                    -0.222740
      4 C                    -0.223287
      5 H                    -0.144715
      6 H                     0.081888
      7 H                     0.062161
      8 H                     0.062441
      9 H                     0.062339
     10 H                     0.061895
     11 H                     0.081685
     12 H                     0.082276
     13 H                     0.061942
     14 H                     0.062300
  ----------------------------------------
  Sum of atomic charges =     0.000000

 -----------------------------------------------------------------
                    Cartesian Multipole Moments
 -----------------------------------------------------------------
    Charge (ESU x 10^10)
                 0.0000
    Dipole Moment (Debye)
         X       0.0005      Y       0.0002      Z      -0.5608
       Tot       0.5608
    Quadrupole Moments (Debye-Ang)
        XX     -35.7753     XY      -0.0005     YY     -35.7756
        XZ       0.0006     YZ       0.0005     ZZ     -36.8639
    Octopole Moments (Debye-Ang^2)
       XXX      -0.8252    XXY       3.6065    XYY       0.8251
       YYY      -3.6287    XXZ       2.0220    XYZ       0.0003
       YYZ       2.0220    XZZ      -0.0033    YZZ      -0.0050
       ZZZ      -7.6055
    Hexadecapole Moments (Debye-Ang^3)
      XXXX    -313.5515   XXXY       0.0042   XXYY    -104.5546
      XYYY       0.0327   YYYY    -313.6955   XXXZ       0.0145
      XXYZ      -0.0186   XYYZ       0.0010   YYYZ       0.0091
      XXZZ     -71.1688   XYZZ       0.0125   YYZZ     -71.1873
      XZZZ       0.0051   YZZZ      -0.0140   ZZZZ    -113.2157
 -----------------------------------------------------------------
 Electrostatic potential will be computed using the SCF density
   ... ESP will be evaluated on the $plots plotting cube.
Grid information in Angstroms:
 x:        100  min =  -5.425493 max =   5.485492
 y:        100  min =  -5.047346 max =   5.390400
 z:        100  min =  -4.328016 max =   4.879584
 ESP points per batch =         5000
 Created directory /data/scratch/qchem267131/plots
  --- DONE ESP SUMMARY ---
 Total job time:  106.01s(wall), 1489.45s(cpu) 
 Thu May 30 09:46:34 2024

        *************************************************************
        *                                                           *
        *  Thank you very much for using Q-Chem.  Have a nice day.  *
        *                                                           *
        *************************************************************


